    4    4    1    1
  0.1522427E+02  0.3934021E-09  0.3934021E-09  0.3934804E-09  0.5000000E-15
  1.000000000000000E-004
  CAR 
 VPt3                                    
     43    300     56
 
  0.0000000E+00  0.0000000E+00  0.0000000E+00  0.3333333E-02
    1      -54.806027   1.000000
    2      -52.988650   1.000000
    3      -28.977239   1.000000
    4      -28.727360   1.000000
    5      -28.358507   1.000000
    6      -27.017495   1.000000
    7      -26.773531   1.000000
    8      -26.562865   1.000000
    9        1.050942   1.000000
   10        1.129680   1.000000
   11        3.822810   1.000000
   12        3.823445   1.000000
   13        4.165098   1.000000
   14        4.169035   1.000000
   15        4.411042   1.000000
   16        4.415441   1.000000
   17        4.480278   1.000000
   18        4.490582   1.000000
   19        4.599760   1.000000
   20        4.628530   1.000000
   21        4.669539   1.000000
   22        4.690944   1.000000
   23        7.341390   1.000000
   24        7.348025   1.000000
   25        7.383442   1.000000
   26        7.392029   1.000000
   27        8.041278   1.000000
   28        8.054312   1.000000
   29        9.436835   1.000000
   30        9.440177   1.000000
   31        9.523195   1.000000
   32        9.523314   1.000000
   33       10.519153   1.000000
   34       10.598244   1.000000
   35       10.625651   1.000000
   36       10.670466   1.000000
   37       10.688921   1.000000
   38       10.730558   1.000000
   39       11.146675   0.000000
   40       11.261792   0.000000
   41       11.412339   0.000000
   42       11.489638   0.000000
   43       12.132764   0.000000
   44       12.164413   0.000000
   45       12.202833   0.000000
   46       12.249673   0.000000
   47       12.348427   0.000000
   48       12.377552   0.000000
   49       12.408953   0.000000
   50       12.869721   0.000000
   51       12.924736   0.000000
   52       13.506678   0.000000
   53       13.518934   0.000000
   54       13.649116   0.000000
   55       13.679617   0.000000
   56       13.690202   0.000000
 
  0.0000000E+00  0.1020408E-01  0.0000000E+00  0.3333333E-02
    1      -54.806026   1.000000
    2      -52.988649   1.000000
    3      -28.977244   1.000000
    4      -28.727361   1.000000
    5      -28.358513   1.000000
    6      -27.017501   1.000000
    7      -26.773533   1.000000
    8      -26.562872   1.000000
    9        1.052268   1.000000
   10        1.131003   1.000000
   11        3.823654   1.000000
   12        3.824287   1.000000
   13        4.165975   1.000000
   14        4.169679   1.000000
   15        4.411635   1.000000
   16        4.416254   1.000000
   17        4.480916   1.000000
   18        4.491242   1.000000
   19        4.600375   1.000000
   20        4.629264   1.000000
   21        4.670193   1.000000
   22        4.691648   1.000000
   23        7.341531   1.000000
   24        7.347865   1.000000
   25        7.383230   1.000000
   26        7.392055   1.000000
   27        8.041202   1.000000
   28        8.054229   1.000000
   29        9.436124   1.000000
   30        9.440125   1.000000
   31        9.522140   1.000000
   32        9.523202   1.000000
   33       10.517941   1.000000
   34       10.596735   1.000000
   35       10.622315   1.000000
   36       10.668684   1.000000
   37       10.684038   1.000000
   38       10.726964   1.000000
   39       11.138750   0.000000
   40       11.257063   0.000000
   41       11.408513   0.000000
   42       11.481324   0.000000
   43       12.127628   0.000000
   44       12.157918   0.000000
   45       12.204225   0.000000
   46       12.249979   0.000000
   47       12.350638   0.000000
   48       12.385264   0.000000
   49       12.416492   0.000000
   50       12.872902   0.000000
   51       12.924397   0.000000
   52       13.508855   0.000000
   53       13.519031   0.000000
   54       13.650910   0.000000
   55       13.682083   0.000000
   56       13.693484   0.000000
 
  0.0000000E+00  0.2040816E-01  0.0000000E+00  0.3333333E-02
    1      -54.805813   1.000000
    2      -52.988418   1.000000
    3      -28.976892   1.000000
    4      -28.727201   1.000000
    5      -28.358167   1.000000
    6      -27.017173   1.000000
    7      -26.773371   1.000000
    8      -26.562542   1.000000
    9        1.056270   1.000000
   10        1.134993   1.000000
   11        3.826201   1.000000
   12        3.826832   1.000000
   13        4.168448   1.000000
   14        4.171863   1.000000
   15        4.413383   1.000000
   16        4.418808   1.000000
   17        4.482884   1.000000
   18        4.493281   1.000000
   19        4.602260   1.000000
   20        4.631539   1.000000
   21        4.672204   1.000000
   22        4.693796   1.000000
   23        7.341954   1.000000
   24        7.347371   1.000000
   25        7.382611   1.000000
   26        7.392163   1.000000
   27        8.040989   1.000000
   28        8.053995   1.000000
   29        9.433627   1.000000
   30        9.440345   1.000000
   31        9.518910   1.000000
   32        9.522951   1.000000
   33       10.514358   1.000000
   34       10.591896   1.000000
   35       10.611760   1.000000
   36       10.664250   1.000000
   37       10.669421   1.000000
   38       10.716437   1.000000
   39       11.114579   0.000000
   40       11.244722   0.000000
   41       11.396318   0.000000
   42       11.459237   0.000000
   43       12.113708   0.000000
   44       12.140330   0.000000
   45       12.205953   0.000000
   46       12.251269   0.000000
   47       12.353668   0.000000
   48       12.406675   0.000000
   49       12.437929   0.000000
   50       12.883550   0.000000
   51       12.925414   0.000000
   52       13.512459   0.000000
   53       13.521701   0.000000
   54       13.654848   0.000000
   55       13.691212   0.000000
   56       13.703911   0.000000
 
  0.0000000E+00  0.3061224E-01  0.0000000E+00  0.3333333E-02
    1      -54.805745   1.000000
    2      -52.988369   1.000000
    3      -28.976848   1.000000
    4      -28.727087   1.000000
    5      -28.358131   1.000000
    6      -27.017139   1.000000
    7      -26.773280   1.000000
    8      -26.562517   1.000000
    9        1.062941   1.000000
   10        1.141647   1.000000
   11        3.830413   1.000000
   12        3.831041   1.000000
   13        4.171779   1.000000
   14        4.176133   1.000000
   15        4.416044   1.000000
   16        4.423157   1.000000
   17        4.486081   1.000000
   18        4.496597   1.000000
   19        4.605356   1.000000
   20        4.635223   1.000000
   21        4.675489   1.000000
   22        4.697345   1.000000
   23        7.342591   1.000000
   24        7.346462   1.000000
   25        7.381597   1.000000
   26        7.392383   1.000000
   27        8.040629   1.000000
   28        8.053599   1.000000
   29        9.429119   1.000000
   30        9.441041   1.000000
   31        9.513516   1.000000
   32        9.522494   1.000000
   33       10.508277   1.000000
   34       10.580911   1.000000
   35       10.594545   1.000000
   36       10.644892   1.000000
   37       10.658317   1.000000
   38       10.699312   1.000000
   39       11.073814   0.000000
   40       11.228450   0.000000
   41       11.372663   0.000000
   42       11.431131   0.000000
   43       12.093897   0.000000
   44       12.115916   0.000000
   45       12.202225   0.000000
   46       12.250876   0.000000
   47       12.353753   0.000000
   48       12.437031   0.000000
   49       12.467583   0.000000
   50       12.904406   0.000000
   51       12.933136   0.000000
   52       13.511888   0.000000
   53       13.530145   0.000000
   54       13.657977   0.000000
   55       13.709543   0.000000
   56       13.721979   0.000000
 
  0.0000000E+00  0.4081633E-01  0.0000000E+00  0.3333333E-02
    1      -54.805713   1.000000
    2      -52.988308   1.000000
    3      -28.976820   1.000000
    4      -28.727093   1.000000
    5      -28.358110   1.000000
    6      -27.017108   1.000000
    7      -26.773287   1.000000
    8      -26.562491   1.000000
    9        1.072280   1.000000
   10        1.150961   1.000000
   11        3.836299   1.000000
   12        3.836925   1.000000
   13        4.175653   1.000000
   14        4.182881   1.000000
   15        4.419597   1.000000
   16        4.429365   1.000000
   17        4.490520   1.000000
   18        4.501217   1.000000
   19        4.609661   1.000000
   20        4.640409   1.000000
   21        4.680096   1.000000
   22        4.702311   1.000000
   23        7.343373   1.000000
   24        7.345030   1.000000
   25        7.380245   1.000000
   26        7.392805   1.000000
   27        8.040143   1.000000
   28        8.053060   1.000000
   29        9.422680   1.000000
   30        9.442140   1.000000
   31        9.505986   1.000000
   32        9.521812   1.000000
   33       10.499727   1.000000
   34       10.554681   1.000000
   35       10.578149   1.000000
   36       10.610497   1.000000
   37       10.651236   1.000000
   38       10.677103   1.000000
   39       11.018045   0.000000
   40       11.211227   0.000000
   41       11.335298   0.000000
   42       11.405341   0.000000
   43       12.070448   0.000000
   44       12.088232   0.000000
   45       12.187277   0.000000
   46       12.242379   0.000000
   47       12.350953   0.000000
   48       12.471536   0.000000
   49       12.498816   0.000000
   50       12.938658   0.000000
   51       12.954258   0.000000
   52       13.509091   0.000000
   53       13.540411   0.000000
   54       13.659693   0.000000
   55       13.737742   0.000000
   56       13.748890   0.000000
 
  0.0000000E+00  0.5102041E-01  0.0000000E+00  0.3333333E-02
    1      -54.805679   1.000000
    2      -52.988246   1.000000
    3      -28.976861   1.000000
    4      -28.726986   1.000000
    5      -28.358166   1.000000
    6      -27.017146   1.000000
    7      -26.773176   1.000000
    8      -26.562545   1.000000
    9        1.084279   1.000000
   10        1.162927   1.000000
   11        3.843843   1.000000
   12        3.844470   1.000000
   13        4.180270   1.000000
   14        4.191870   1.000000
   15        4.424012   1.000000
   16        4.437401   1.000000
   17        4.496202   1.000000
   18        4.507145   1.000000
   19        4.615212   1.000000
   20        4.647078   1.000000
   21        4.686030   1.000000
   22        4.708733   1.000000
   23        7.342957   1.000000
   24        7.344157   1.000000
   25        7.378670   1.000000
   26        7.393516   1.000000
   27        8.039554   1.000000
   28        8.052401   1.000000
   29        9.414370   1.000000
   30        9.443573   1.000000
   31        9.496328   1.000000
   32        9.520854   1.000000
   33       10.488634   1.000000
   34       10.514239   1.000000
   35       10.559927   1.000000
   36       10.566484   1.000000
   37       10.638542   1.000000
   38       10.655875   1.000000
   39       10.950406   0.000000
   40       11.194451   0.000000
   41       11.288618   0.000000
   42       11.382891   0.000000
   43       12.044452   0.000000
   44       12.059101   0.000000
   45       12.157725   0.000000
   46       12.218596   0.000000
   47       12.347085   0.000000
   48       12.505862   0.000000
   49       12.527709   0.000000
   50       12.988242   0.000000
   51       12.993464   0.000000
   52       13.505165   0.000000
   53       13.549652   0.000000
   54       13.660576   0.000000
   55       13.775443   0.000000
   56       13.785319   0.000000
 
  0.0000000E+00  0.6122449E-01  0.0000000E+00  0.3333333E-02
    1      -54.805674   1.000000
    2      -52.988241   1.000000
    3      -28.976926   1.000000
    4      -28.727007   1.000000
    5      -28.358242   1.000000
    6      -27.017221   1.000000
    7      -26.773201   1.000000
    8      -26.562632   1.000000
    9        1.098929   1.000000
   10        1.177535   1.000000
   11        3.853024   1.000000
   12        3.853656   1.000000
   13        4.185756   1.000000
   14        4.202914   1.000000
   15        4.429275   1.000000
   16        4.447200   1.000000
   17        4.503087   1.000000
   18        4.514363   1.000000
   19        4.621981   1.000000
   20        4.655253   1.000000
   21        4.693303   1.000000
   22        4.716615   1.000000
   23        7.340110   1.000000
   24        7.344711   1.000000
   25        7.377046   1.000000
   26        7.394596   1.000000
   27        8.038880   1.000000
   28        8.051637   1.000000
   29        9.404225   1.000000
   30        9.445291   1.000000
   31        9.484558   1.000000
   32        9.519554   1.000000
   33       10.463583   1.000000
   34       10.474871   1.000000
   35       10.513354   1.000000
   36       10.533335   1.000000
   37       10.614143   1.000000
   38       10.644462   1.000000
   39       10.874224   0.324715
   40       11.178633   0.000000
   41       11.238971   0.000000
   42       11.361709   0.000000
   43       12.015857   0.000000
   44       12.029175   0.000000
   45       12.113228   0.000000
   46       12.175347   0.000000
   47       12.343961   0.000000
   48       12.536899   0.000000
   49       12.552876   0.000000
   50       13.051137   0.000000
   51       13.052993   0.000000
   52       13.500378   0.000000
   53       13.556800   0.000000
   54       13.661074   0.000000
   55       13.822198   0.000000
   56       13.831350   0.000000
 
  0.0000000E+00  0.7142857E-01  0.0000000E+00  0.3333333E-02
    1      -54.805667   1.000000
    2      -52.988234   1.000000
    3      -28.977003   1.000000
    4      -28.727032   1.000000
    5      -28.358332   1.000000
    6      -27.017310   1.000000
    7      -26.773231   1.000000
    8      -26.562735   1.000000
    9        1.116219   1.000000
   10        1.194775   1.000000
   11        3.863824   1.000000
   12        3.864471   1.000000
   13        4.192142   1.000000
   14        4.215968   1.000000
   15        4.435373   1.000000
   16        4.458706   1.000000
   17        4.511160   1.000000
   18        4.522879   1.000000
   19        4.629993   1.000000
   20        4.664947   1.000000
   21        4.701932   1.000000
   22        4.725996   1.000000
   23        7.336378   1.000000
   24        7.344686   1.000000
   25        7.375669   1.000000
   26        7.396101   1.000000
   27        8.038146   1.000000
   28        8.050790   1.000000
   29        9.392279   1.000000
   30        9.447247   1.000000
   31        9.470711   1.000000
   32        9.517820   1.000000
   33       10.404228   1.000000
   34       10.451852   1.000000
   35       10.458275   1.000000
   36       10.494364   1.000000
   37       10.588258   1.000000
   38       10.635936   1.000000
   39       10.792397   1.000000
   40       11.163901   0.000000
   41       11.190263   0.000000
   42       11.340950   0.000000
   43       11.982786   0.000000
   44       11.998553   0.000000
   45       12.056772   0.000000
   46       12.113270   0.000000
   47       12.341924   0.000000
   48       12.562856   0.000000
   49       12.573996   0.000000
   50       13.124207   0.000000
   51       13.130995   0.000000
   52       13.495081   0.000000
   53       13.561748   0.000000
   54       13.661507   0.000000
   55       13.877754   0.000000
   56       13.886615   0.000000
 
  0.0000000E+00  0.8163265E-01  0.0000000E+00  0.3333333E-02
    1      -54.805629   1.000000
    2      -52.988167   1.000000
    3      -28.977024   1.000000
    4      -28.727046   1.000000
    5      -28.358368   1.000000
    6      -27.017342   1.000000
    7      -26.773235   1.000000
    8      -26.562780   1.000000
    9        1.136135   1.000000
   10        1.214630   1.000000
   11        3.876222   1.000000
   12        3.876899   1.000000
   13        4.199444   1.000000
   14        4.230993   1.000000
   15        4.442286   1.000000
   16        4.471852   1.000000
   17        4.520406   1.000000
   18        4.532702   1.000000
   19        4.639276   1.000000
   20        4.676172   1.000000
   21        4.711942   1.000000
   22        4.736918   1.000000
   23        7.331675   1.000000
   24        7.343642   1.000000
   25        7.374920   1.000000
   26        7.398055   1.000000
   27        8.037378   1.000000
   28        8.049886   1.000000
   29        9.378567   1.000000
   30        9.449380   1.000000
   31        9.454822   1.000000
   32        9.515537   1.000000
   33       10.337321   1.000000
   34       10.382964   1.000000
   35       10.438427   1.000000
   36       10.442721   1.000000
   37       10.564486   1.000000
   38       10.627069   1.000000
   39       10.707433   1.000000
   40       11.144550   0.000000
   41       11.150130   0.000000
   42       11.320445   0.000000
   43       11.937425   0.000000
   44       11.967099   0.000000
   45       11.998000   0.000000
   46       12.035648   0.000000
   47       12.340514   0.000000
   48       12.582905   0.000000
   49       12.590762   0.000000
   50       13.208118   0.000000
   51       13.219560   0.000000
   52       13.489932   0.000000
   53       13.564916   0.000000
   54       13.662184   0.000000
   55       13.941810   0.000000
   56       13.950582   0.000000
 
  0.0000000E+00  0.9183673E-01  0.0000000E+00  0.3333333E-02
    1      -54.805670   1.000000
    2      -52.988169   1.000000
    3      -28.977242   1.000000
    4      -28.727020   1.000000
    5      -28.358607   1.000000
    6      -27.017545   1.000000
    7      -26.773211   1.000000
    8      -26.563006   1.000000
    9        1.158657   1.000000
   10        1.237082   1.000000
   11        3.890181   1.000000
   12        3.890908   1.000000
   13        4.207622   1.000000
   14        4.247937   1.000000
   15        4.449959   1.000000
   16        4.486539   1.000000
   17        4.530770   1.000000
   18        4.543831   1.000000
   19        4.649837   1.000000
   20        4.688919   1.000000
   21        4.723335   1.000000
   22        4.749409   1.000000
   23        7.325942   1.000000
   24        7.341181   1.000000
   25        7.375117   1.000000
   26        7.400441   1.000000
   27        8.036596   1.000000
   28        8.048942   1.000000
   29        9.363116   1.000000
   30        9.436918   1.000000
   31        9.451602   1.000000
   32        9.512523   1.000000
   33       10.263834   1.000000
   34       10.307584   1.000000
   35       10.380808   1.000000
   36       10.414449   1.000000
   37       10.541407   1.000000
   38       10.617138   1.000000
   39       10.621748   1.000000
   40       11.102536   0.000000
   41       11.136968   0.000000
   42       11.300170   0.000000
   43       11.866973   0.000000
   44       11.933931   0.000000
   45       11.946700   0.000000
   46       11.951621   0.000000
   47       12.339310   0.000000
   48       12.596751   0.000000
   49       12.602753   0.000000
   50       13.296982   0.000000
   51       13.315800   0.000000
   52       13.486523   0.000000
   53       13.567314   0.000000
   54       13.663551   0.000000
   55       14.013890   0.000000
   56       14.022531   0.000000
 
  0.0000000E+00  0.1020408E+00  0.0000000E+00  0.3333333E-02
    1      -54.805632   1.000000
    2      -52.988097   1.000000
    3      -28.977289   1.000000
    4      -28.727047   1.000000
    5      -28.358672   1.000000
    6      -27.017598   1.000000
    7      -26.773239   1.000000
    8      -26.563077   1.000000
    9        1.183757   1.000000
   10        1.262099   1.000000
   11        3.905664   1.000000
   12        3.906466   1.000000
   13        4.216637   1.000000
   14        4.266762   1.000000
   15        4.458335   1.000000
   16        4.502654   1.000000
   17        4.542203   1.000000
   18        4.556286   1.000000
   19        4.661695   1.000000
   20        4.703209   1.000000
   21        4.736139   1.000000
   22        4.763508   1.000000
   23        7.319145   1.000000
   24        7.337143   1.000000
   25        7.376385   1.000000
   26        7.403251   1.000000
   27        8.035830   1.000000
   28        8.047986   1.000000
   29        9.346071   1.000000
   30        9.417119   1.000000
   31        9.453796   1.000000
   32        9.508553   1.000000
   33       10.184868   1.000000
   34       10.226843   1.000000
   35       10.311469   1.000000
   36       10.384361   1.000000
   37       10.517526   1.000000
   38       10.538893   1.000000
   39       10.605985   1.000000
   40       11.064318   0.000000
   41       11.123841   0.000000
   42       11.280193   0.000000
   43       11.776947   0.000000
   44       11.847020   0.000000
   45       11.901604   0.000000
   46       11.914131   0.000000
   47       12.338111   0.000000
   48       12.604523   0.000000
   49       12.609735   0.000000
   50       13.378255   0.000000
   51       13.416711   0.000000
   52       13.491140   0.000000
   53       13.573240   0.000000
   54       13.666791   0.000000
   55       14.093602   0.000000
   56       14.102038   0.000000
 
  0.0000000E+00  0.1122449E+00  0.0000000E+00  0.3333333E-02
    1      -54.805702   1.000000
    2      -52.988158   1.000000
    3      -28.977518   1.000000
    4      -28.727194   1.000000
    5      -28.358920   1.000000
    6      -27.017844   1.000000
    7      -26.773372   1.000000
    8      -26.563342   1.000000
    9        1.211423   1.000000
   10        1.289668   1.000000
   11        3.922628   1.000000
   12        3.923542   1.000000
   13        4.226463   1.000000
   14        4.287418   1.000000
   15        4.467365   1.000000
   16        4.520053   1.000000
   17        4.554671   1.000000
   18        4.570120   1.000000
   19        4.674886   1.000000
   20        4.719030   1.000000
   21        4.750366   1.000000
   22        4.779260   1.000000
   23        7.311252   1.000000
   24        7.331572   1.000000
   25        7.378509   1.000000
   26        7.406362   1.000000
   27        8.035067   1.000000
   28        8.047006   1.000000
   29        9.327255   1.000000
   30        9.395338   1.000000
   31        9.455782   1.000000
   32        9.503316   1.000000
   33       10.101167   1.000000
   34       10.141532   1.000000
   35       10.236771   1.000000
   36       10.343462   1.000000
   37       10.464581   1.000000
   38       10.491957   1.000000
   39       10.593254   1.000000
   40       11.029503   0.000000
   41       11.109808   0.000000
   42       11.260411   0.000000
   43       11.676105   0.000000
   44       11.742542   0.000000
   45       11.866626   0.000000
   46       11.878273   0.000000
   47       12.336803   0.000000
   48       12.606330   0.000000
   49       12.611486   0.000000
   50       13.420616   0.000000
   51       13.513682   0.000000
   52       13.516553   0.000000
   53       13.602222   0.000000
   54       13.676101   0.000000
   55       14.180209   0.000000
   56       14.188333   0.000000
 
  0.0000000E+00  0.1224490E+00  0.0000000E+00  0.3333333E-02
    1      -54.805691   1.000000
    2      -52.988147   1.000000
    3      -28.977647   1.000000
    4      -28.727236   1.000000
    5      -28.359070   1.000000
    6      -27.017993   1.000000
    7      -26.773422   1.000000
    8      -26.563513   1.000000
    9        1.241639   1.000000
   10        1.319773   1.000000
   11        3.941030   1.000000
   12        3.942104   1.000000
   13        4.237078   1.000000
   14        4.309860   1.000000
   15        4.476990   1.000000
   16        4.538559   1.000000
   17        4.568145   1.000000
   18        4.585426   1.000000
   19        4.689458   1.000000
   20        4.736386   1.000000
   21        4.766043   1.000000
   22        4.796721   1.000000
   23        7.302265   1.000000
   24        7.324630   1.000000
   25        7.381292   1.000000
   26        7.409732   1.000000
   27        8.034324   1.000000
   28        8.046020   1.000000
   29        9.306836   1.000000
   30        9.371704   1.000000
   31        9.457301   1.000000
   32        9.496409   1.000000
   33       10.013607   1.000000
   34       10.052549   1.000000
   35       10.158587   1.000000
   36       10.285909   1.000000
   37       10.405840   1.000000
   38       10.464363   1.000000
   39       10.578741   1.000000
   40       10.997759   0.000000
   41       11.093423   0.000000
   42       11.240661   0.000000
   43       11.568398   0.000000
   44       11.634966   0.000000
   45       11.830565   0.000000
   46       11.842223   0.000000
   47       12.335360   0.000000
   48       12.602809   0.000000
   49       12.608372   0.000000
   50       13.425320   0.000000
   51       13.524616   0.000000
   52       13.595490   0.000000
   53       13.681792   0.000000
   54       13.710265   0.000000
   55       14.273129   0.000000
   56       14.280860   0.000000
 
  0.0000000E+00  0.1326531E+00  0.0000000E+00  0.3333333E-02
    1      -54.805679   1.000000
    2      -52.988134   1.000000
    3      -28.977784   1.000000
    4      -28.727282   1.000000
    5      -28.359229   1.000000
    6      -27.018151   1.000000
    7      -26.773475   1.000000
    8      -26.563696   1.000000
    9        1.274379   1.000000
   10        1.352385   1.000000
   11        3.960813   1.000000
   12        3.962108   1.000000
   13        4.248443   1.000000
   14        4.334022   1.000000
   15        4.487146   1.000000
   16        4.557931   1.000000
   17        4.582581   1.000000
   18        4.602333   1.000000
   19        4.705439   1.000000
   20        4.755270   1.000000
   21        4.783185   1.000000
   22        4.815932   1.000000
   23        7.292173   1.000000
   24        7.316442   1.000000
   25        7.384509   1.000000
   26        7.413275   1.000000
   27        8.033583   1.000000
   28        8.045010   1.000000
   29        9.284862   1.000000
   30        9.346271   1.000000
   31        9.457943   1.000000
   32        9.487252   1.000000
   33        9.922811   1.000000
   34        9.960541   1.000000
   35       10.078595   1.000000
   36       10.214268   1.000000
   37       10.361173   1.000000
   38       10.434415   1.000000
   39       10.562146   1.000000
   40       10.968491   0.000000
   41       11.072131   0.000000
   42       11.220391   0.000000
   43       11.456460   0.000000
   44       11.528022   0.000000
   45       11.793172   0.000000
   46       11.805178   0.000000
   47       12.333745   0.000000
   48       12.594314   0.000000
   49       12.600587   0.000000
   50       13.418752   0.000000
   51       13.521181   0.000000
   52       13.626795   0.000000
   53       13.787433   0.000000
   54       13.795167   0.000000
   55       14.371639   0.000000
   56       14.378929   0.000000
 
  0.0000000E+00  0.1428571E+00  0.0000000E+00  0.3333333E-02
    1      -54.805666   1.000000
    2      -52.988120   1.000000
    3      -28.977928   1.000000
    4      -28.727329   1.000000
    5      -28.359397   1.000000
    6      -27.018319   1.000000
    7      -26.773531   1.000000
    8      -26.563888   1.000000
    9        1.309616   1.000000
   10        1.387474   1.000000
   11        3.981915   1.000000
   12        3.983509   1.000000
   13        4.260521   1.000000
   14        4.359829   1.000000
   15        4.497763   1.000000
   16        4.577892   1.000000
   17        4.597948   1.000000
   18        4.621011   1.000000
   19        4.722865   1.000000
   20        4.775677   1.000000
   21        4.801808   1.000000
   22        4.836937   1.000000
   23        7.280980   1.000000
   24        7.307096   1.000000
   25        7.387977   1.000000
   26        7.416896   1.000000
   27        8.032810   1.000000
   28        8.043947   1.000000
   29        9.261392   1.000000
   30        9.319104   1.000000
   31        9.457053   1.000000
   32        9.475071   1.000000
   33        9.829374   1.000000
   34        9.866108   1.000000
   35        9.998486   1.000000
   36       10.137453   1.000000
   37       10.322894   1.000000
   38       10.401971   1.000000
   39       10.543087   1.000000
   40       10.941226   0.000000
   41       11.041404   0.000000
   42       11.197523   0.000000
   43       11.344036   0.000000
   44       11.427195   0.000000
   45       11.754440   0.000000
   46       11.766928   0.000000
   47       12.331936   0.000000
   48       12.581343   0.000000
   49       12.588530   0.000000
   50       13.408553   0.000000
   51       13.512261   0.000000
   52       13.635232   0.000000
   53       13.902112   0.000000
   54       13.905424   0.000000
   55       14.475084   0.000000
   56       14.481918   0.000000
 
  0.0000000E+00  0.1530612E+00  0.0000000E+00  0.3333333E-02
    1      -54.805652   1.000000
    2      -52.988104   1.000000
    3      -28.978079   1.000000
    4      -28.727379   1.000000
    5      -28.359574   1.000000
    6      -27.018495   1.000000
    7      -26.773590   1.000000
    8      -26.564090   1.000000
    9        1.347318   1.000000
   10        1.425008   1.000000
   11        4.004261   1.000000
   12        4.006256   1.000000
   13        4.273273   1.000000
   14        4.387194   1.000000
   15        4.508770   1.000000
   16        4.598161   1.000000
   17        4.614228   1.000000
   18        4.641631   1.000000
   19        4.741766   1.000000
   20        4.797601   1.000000
   21        4.821928   1.000000
   22        4.859772   1.000000
   23        7.268693   1.000000
   24        7.296649   1.000000
   25        7.391542   1.000000
   26        7.420496   1.000000
   27        8.031953   1.000000
   28        8.042780   1.000000
   29        9.236489   1.000000
   30        9.290272   1.000000
   31        9.453560   1.000000
   32        9.458849   1.000000