 vasp.5.4.4.18Apr17-6-g9f103f2a35 (build Feb 18 2020 20:24:19) complex          
  
 executed on             LinuxIFC date 2021.10.07  20:39:02
 running on   48 total cores
 distrk:  each k-point on   48 cores,    1 groups
 distr:  one band on NCORES_PER_BAND=  12 cores,    4 groups


--------------------------------------------------------------------------------------------------------


 INCAR:
 POTCAR:    PAW_PBE V_sv 02Aug2007                
 POTCAR:    PAW_PBE Pt 04Feb2005                  
 POTCAR:    PAW_PBE V_sv 02Aug2007                
  local pseudopotential read in
  partial core-charges read in
  partial kinetic energy density read in
  atomic valenz-charges read in
  non local Contribution for L=           0  read in
    real space projection operators read in
  non local Contribution for L=           0  read in
    real space projection operators read in
  non local Contribution for L=           1  read in
    real space projection operators read in
  non local Contribution for L=           1  read in
    real space projection operators read in
  non local Contribution for L=           2  read in
    real space projection operators read in
  non local Contribution for L=           2  read in
    real space projection operators read in
    PAW grid and wavefunctions read in
 
   number of l-projection  operators is LMAX  =           6
   number of lm-projection operators is LMMAX =          18
 
 POTCAR:    PAW_PBE Pt 04Feb2005                  
  local pseudopotential read in
  partial core-charges read in
  partial kinetic energy density read in
  atomic valenz-charges read in
  non local Contribution for L=           2  read in
    real space projection operators read in
  non local Contribution for L=           2  read in
    real space projection operators read in
  non local Contribution for L=           0  read in
    real space projection operators read in
  non local Contribution for L=           0  read in
    real space projection operators read in
  non local Contribution for L=           1  read in
    real space projection operators read in
  non local Contribution for L=           1  read in
    real space projection operators read in
    PAW grid and wavefunctions read in
 
   number of l-projection  operators is LMAX  =           6
   number of lm-projection operators is LMMAX =          18
 
  PAW_PBE V_sv 02Aug2007                :
 energy of atom  1       EATOM=-1952.1149
 kinetic energy error for atom=    0.0322 (will be added to EATOM!!)
  PAW_PBE Pt 04Feb2005                  :
 energy of atom  2       EATOM= -729.1176
 kinetic energy error for atom=    0.0056 (will be added to EATOM!!)
 
 
 POSCAR: V1 Pt3                                  
  positions in direct lattice
  velocities in cartesian coordinates
 exchange correlation table for  LEXCH =        8
   RHO(1)=    0.500       N(1)  =     2000
   RHO(2)=  100.500       N(2)  =     4000
 


--------------------------------------------------------------------------------------------------------


 ion  position               nearest neighbor table
   1  0.000  0.000  0.000-   2 2.78   2 2.78   2 2.78   2 2.78   4 2.78   3 2.78   4 2.78   4 2.78
                             4 2.78   3 2.78   3 2.78   3 2.78
   2  0.500  0.500  0.000-   1 2.78   1 2.78   1 2.78   1 2.78   4 2.78   3 2.78   3 2.78   3 2.78
                             4 2.78   4 2.78   4 2.78   3 2.78
   3  0.500  0.000  0.500-   4 2.78   4 2.78   4 2.78   4 2.78   2 2.78   2 2.78   2 2.78   2 2.78
                             1 2.78   1 2.78   1 2.78   1 2.78
   4  0.000  0.500  0.500-   3 2.78   3 2.78   3 2.78   3 2.78   2 2.78   1 2.78   2 2.78   1 2.78
                             2 2.78   1 2.78   2 2.78   1 2.78
 
  LATTYP: Found a simple tetragonal cell.
 ALAT       =     3.9340210332
 C/A-ratio  =     1.0001989908
  
  Lattice vectors:
  
 A1 = (   3.9340210332,  -0.0000000003,   0.0000000000)
 A2 = (   0.0000000003,   3.9340210332,   0.0000000000)
 A3 = (   0.0000000000,   0.0000000000,   3.9348038672)


Analysis of symmetry for initial positions (statically):
=====================================================================
 Subroutine PRICEL returns:
 Original cell was already a primitive cell.
 

 Routine SETGRP: Setting up the symmetry group for a 
 simple tetragonal supercell.


 Subroutine GETGRP returns: Found 16 space group operations
 (whereof 16 operations were pure point group operations)
 out of a pool of 16 trial point group operations.


The static configuration has the point symmetry D_4h.


Analysis of symmetry for dynamics (positions and initial velocities):
=====================================================================
 Subroutine PRICEL returns:
 Original cell was already a primitive cell.
 

 Routine SETGRP: Setting up the symmetry group for a 
 simple tetragonal supercell.


 Subroutine GETGRP returns: Found 16 space group operations
 (whereof 16 operations were pure point group operations)
 out of a pool of 16 trial point group operations.


The dynamic configuration has the point symmetry D_4h.


Analysis of structural, dynamic, and magnetic symmetry:
=====================================================================
 Subroutine PRICEL returns:
 Original cell was already a primitive cell.
 

 Routine SETGRP: Setting up the symmetry group for a 
 simple tetragonal supercell.


 Subroutine GETGRP returns: Found  8 space group operations
 (whereof  8 operations were pure point group operations)
 out of a pool of 16 trial point group operations.


The (compounded) configuration has the point symmetry C_4h.


 Subroutine INISYM returns: Found  8 space group operations
 (whereof  8 operations are pure point group operations),
 and found     1 'primitive' translations

 
 
 KPOINTS: CUB (simple cubic) G-X-M-G-R-X M-R      
  interpolating k-points between supplied coordinates
  k-points in reciprocal lattice
Space group operators:
 irot       det(A)        alpha          n_x          n_y          n_z        tau_x        tau_y        tau_z
    1     1.000000     0.000000     1.000000     0.000000     0.000000     0.000000     0.000000     0.000000
    2    -1.000000     0.000000     1.000000     0.000000     0.000000     0.000000     0.000000     0.000000
    3     1.000000    90.000000     0.000000     0.000000    -1.000000     0.000000     0.000000     0.000000
    4    -1.000000    90.000000     0.000000     0.000000    -1.000000     0.000000     0.000000     0.000000
    5     1.000000   180.000000     0.000000     0.000000     1.000000     0.000000     0.000000     0.000000
    6    -1.000000   180.000000     0.000000     0.000000     1.000000     0.000000     0.000000     0.000000
    7     1.000000    90.000000     0.000000     0.000000     1.000000     0.000000     0.000000     0.000000
    8    -1.000000    90.000000     0.000000     0.000000     1.000000     0.000000     0.000000     0.000000


--------------------------------------------------------------------------------------------------------




 Dimension of arrays:
   k-points           NKPTS =    300   k-points in BZ     NKDIM =    300   number of bands    NBANDS=     56
   number of dos      NEDOS =    301   number of ions     NIONS =      4
   non local maximal  LDIM  =      6   non local SUM 2l+1 LMDIM =     18
   total plane-waves  NPLWV =   8000
   max r-space proj   IRMAX =      1   max aug-charges    IRDMAX=   8155
   dimension x,y,z NGX =    20 NGY =   20 NGZ =   20
   dimension x,y,z NGXF=    40 NGYF=   40 NGZF=   40
   support grid    NGXF=    40 NGYF=   40 NGZF=   40
   ions per type =               1   3
   NGX,Y,Z   is equivalent  to a cutoff of   8.45,  8.45,  8.45 a.u.
   NGXF,Y,Z  is equivalent  to a cutoff of  16.90, 16.90, 16.90 a.u.

 SYSTEM =  VPt3                                    
 POSCAR =  V1 Pt3                                  

 Startparameter for this run:
   NWRITE =      1    write-flag & timer
   PREC   = normal    normal or accurate (medium, high low for compatibility)
   ISTART =      0    job   : 0-new  1-cont  2-samecut
   ICHARG =     11    charge: 1-file 2-atom 10-const
   ISPIN  =      1    spin polarized calculation?
   LNONCOLLINEAR =      T non collinear calculations
   LSORBIT =      T    spin-orbit coupling
   INIWAV =      1    electr: 0-lowe 1-rand  2-diag
   LASPH  =      F    aspherical Exc in radial PAW
   METAGGA=      F    non-selfconsistent MetaGGA calc.

 Electronic Relaxation 1
   ENCUT  =  400.0 eV  29.40 Ry    5.42 a.u.   6.42  6.42  6.42*2*pi/ulx,y,z
   ENINI  =  400.0     initial cutoff
   ENAUG  =  526.6 eV  augmentation charge cutoff
   NELM   =     60;   NELMIN=  2; NELMDL= -5     # of ELM steps 
   EDIFF  = 0.1E-06   stopping-criterion for ELM
   LREAL  =      F    real-space projection
   NLSPLINE    = F    spline interpolate recip. space projectors
   LCOMPAT=      F    compatible to vasp.4.4
   GGA_COMPAT  = T    GGA compatible to vasp.4.4-vasp.4.6
   LMAXPAW     = -100 max onsite density
   LMAXMIX     =    6 max onsite mixed and CHGCAR
   VOSKOWN=      1    Vosko Wilk Nusair interpolation
   ROPT   =    0.00000   0.00000
 Ionic relaxation
   EDIFFG = 0.1E-03   stopping-criterion for IOM
   NSW    =      0    number of steps for IOM
   NBLOCK =      1;   KBLOCK =      1    inner block; outer block 
   IBRION =     -1    ionic relax: 0-MD 1-quasi-New 2-CG
   NFREE  =      0    steps in history (QN), initial steepest desc. (CG)
   ISIF   =      3    stress and relaxation
   IWAVPR =     10    prediction:  0-non 1-charg 2-wave 3-comb
   ISYM   =      2    0-nonsym 1-usesym 2-fastsym
   LCORR  =      T    Harris-Foulkes like correction to forces

   POTIM  = 0.5000    time-step for ionic-motion
   TEIN   =    0.0    initial temperature
   TEBEG  =    0.0;   TEEND  =   0.0 temperature during run
   SMASS  =  -3.00    Nose mass-parameter (am)
   estimated Nose-frequenzy (Omega)   =  0.10E-29 period in steps =****** mass=  -0.354E-27a.u.
   SCALEE = 1.0000    scale energy and forces
   NPACO  =    256;   APACO  = 16.0  distance and # of slots for P.C.
   PSTRESS=    0.0 pullay stress

  Mass of Ions in am
   POMASS =  50.94195.08
  Ionic Valenz
   ZVAL   =  13.00 10.00
  Atomic Wigner-Seitz radii
   RWIGS  =  -1.00 -1.00
  virtual crystal weights 
   VCA    =   1.00  1.00
   NELECT =      43.0000    total number of electrons
   NUPDOWN=      -1.0000    fix difference up-down

 DOS related values:
   EMIN   =  10.00;   EMAX   =-10.00  energy-range for DOS
   EFERMI =   0.00
   ISMEAR =    -1;   SIGMA  =   0.00  broadening in eV -4-tet -1-fermi 0-gaus

 Electronic relaxation 2 (details)
   IALGO  =     38    algorithm
   LDIAG  =      T    sub-space diagonalisation (order eigenvalues)
   LSUBROT=      F    optimize rotation matrix (better conditioning)
   TURBO    =      0    0=normal 1=particle mesh
   IRESTART =      0    0=no restart 2=restart with 2 vectors
   NREBOOT  =      0    no. of reboots
   NMIN     =      0    reboot dimension
   EREF     =   0.00    reference energy to select bands
   IMIX   =      4    mixing-type and parameters
     AMIX     =   0.40;   BMIX     =  1.00
     AMIX_MAG =   1.60;   BMIX_MAG =  1.00
     AMIN     =   0.10
     WC   =   100.;   INIMIX=   1;  MIXPRE=   1;  MAXMIX= -45

 Intra band minimization:
   WEIMIN = 0.0000     energy-eigenvalue tresh-hold
   EBREAK =  0.45E-09  absolut break condition
   DEPER  =   0.30     relativ break condition  

   TIME   =   0.40     timestep for ELM

  volume/ion in A,a.u.               =      15.22       102.74
  Fermi-wavevector in a.u.,A,eV,Ry     =   1.457803  2.754848 28.914959  2.125190
  Thomas-Fermi vector in A             =   2.574562
 
 Write flags
   LWAVE        =      F    write WAVECAR
   LDOWNSAMPLE  =      F    k-point downsampling of WAVECAR
   LCHARG       =      F    write CHGCAR
   LVTOT        =      F    write LOCPOT, total local potential
   LVHAR        =      F    write LOCPOT, Hartree potential only
   LELF         =      F    write electronic localiz. function (ELF)
   LORBIT       =     11    0 simple, 1 ext, 2 COOP (PROOUT), +10 PAW based schemes


 Dipole corrections
   LMONO  =      F    monopole corrections only (constant potential shift)
   LDIPOL =      F    correct potential (dipole corrections)
   IDIPOL =      0    1-x, 2-y, 3-z, 4-all directions 
   EPSILON=  1.0000000 bulk dielectric constant

 LDA+U is selected, type is set to LDAUTYPE =  2
   angular momentum for each species LDAUL =     2   -1
   U (eV)           for each species LDAUU =   2.0  0.0
   J (eV)           for each species LDAUJ =   0.0  0.0
 Exchange correlation treatment:
   GGA     =    --    GGA type
   LEXCH   =     8    internal setting for exchange type
   VOSKOWN=      1    Vosko Wilk Nusair interpolation
   LHFCALC =     F    Hartree Fock is set to
   LHFONE  =     F    Hartree Fock one center treatment
   AEXX    =    0.0000 exact exchange contribution

 Linear response parameters
   LEPSILON=     F    determine dielectric tensor
   LRPA    =     F    only Hartree local field effects (RPA)
   LNABLA  =     F    use nabla operator in PAW spheres
   LVEL    =     F    velocity operator in full k-point grid
   LINTERFAST=   F  fast interpolation
   KINTER  =     0    interpolate to denser k-point grid
   CSHIFT  =0.1000    complex shift for real part using Kramers Kronig
   OMEGAMAX=  -1.0    maximum frequency
   DEG_THRESHOLD= 0.2000000E-02 threshold for treating states as degnerate
   RTIME   =   -0.100 relaxation time in fs
  (WPLASMAI=    0.000 imaginary part of plasma frequency in eV, 0.658/RTIME)
   DFIELD  = 0.0000000 0.0000000 0.0000000 field for delta impulse in time
 
 Orbital magnetization related:
   ORBITALMAG=     F  switch on orbital magnetization
   LCHIMAG   =     F  perturbation theory with respect to B field
   DQ        =  0.001000  dq finite difference perturbation B field
   LLRAUG    =     F  two centre corrections for induced B field



--------------------------------------------------------------------------------------------------------


 Static calculation
 charge density and potential remain constant during run
 non collinear spin polarized calculation
 Variant of blocked Davidson
 Davidson routine will perform the subspace rotation
 perform sub-space diagonalisation
    after iterative eigenvector-optimisation
 no mixing
 using additional bands           34
 reciprocal scheme for non local part
 use partial core corrections
 calculate Harris-corrections to forces 
   (improved forces if not selfconsistent)
 use gradient corrections 
 WARNING: stress and forces are not correct
  (second derivative of E(xc) not defined)
 use of overlap-Matrix (Vanderbilt PP)
 Fermi-smearing in eV        SIGMA  =   0.00


--------------------------------------------------------------------------------------------------------


  energy-cutoff  :      400.00
  volume of cell :       60.90
      direct lattice vectors                 reciprocal lattice vectors
     3.934021033 -0.000000000  0.000000000     0.254192845 -0.000000000  0.000000000
     0.000000000  3.934021033  0.000000000     0.000000000  0.254192845  0.000000000
     0.000000000  0.000000000  3.934803867     0.000000000  0.000000000  0.254142273

  length of vectors
     3.934021033  3.934021033  3.934803867     0.254192845  0.254192845  0.254142273


 
 k-points in units of 2pi/SCALE and weight: CUB (simple cubic) G-X-M-G-R-X M-R      
   0.00000000  0.00000000  0.00000000       0.003
   0.00000000  0.00259380  0.00000000       0.003
   0.00000000  0.00518761  0.00000000       0.003
   0.00000000  0.00778141  0.00000000       0.003
   0.00000000  0.01037522  0.00000000       0.003
   0.00000000  0.01296902  0.00000000       0.003
   0.00000000  0.01556283  0.00000000       0.003
   0.00000000  0.01815663  0.00000000       0.003
   0.00000000  0.02075044  0.00000000       0.003
   0.00000000  0.02334424  0.00000000       0.003
   0.00000000  0.02593805  0.00000000       0.003
   0.00000000  0.02853185  0.00000000       0.003
   0.00000000  0.03112565  0.00000000       0.003
   0.00000000  0.03371946  0.00000000       0.003
   0.00000000  0.03631326  0.00000000       0.003
   0.00000000  0.03890707  0.00000000       0.003
   0.00000000  0.04150087  0.00000000       0.003
   0.00000000  0.04409468  0.00000000       0.003
   0.00000000  0.04668848  0.00000000       0.003
   0.00000000  0.04928229  0.00000000       0.003
   0.00000000  0.05187609  0.00000000       0.003
   0.00000000  0.05446990  0.00000000       0.003
   0.00000000  0.05706370  0.00000000       0.003
   0.00000000  0.05965750  0.00000000       0.003
   0.00000000  0.06225131  0.00000000       0.003
   0.00000000  0.06484511  0.00000000       0.003
   0.00000000  0.06743892  0.00000000       0.003
   0.00000000  0.07003272  0.00000000       0.003
   0.00000000  0.07262653  0.00000000       0.003
   0.00000000  0.07522033  0.00000000       0.003
   0.00000000  0.07781414  0.00000000       0.003
   0.00000000  0.08040794  0.00000000       0.003
   0.00000000  0.08300175  0.00000000       0.003
   0.00000000  0.08559555  0.00000000       0.003
   0.00000000  0.08818935  0.00000000       0.003
   0.00000000  0.09078316  0.00000000       0.003
   0.00000000  0.09337696  0.00000000       0.003
   0.00000000  0.09597077  0.00000000       0.003
   0.00000000  0.09856457  0.00000000       0.003
   0.00000000  0.10115838  0.00000000       0.003
   0.00000000  0.10375218  0.00000000       0.003
   0.00000000  0.10634599  0.00000000       0.003
   0.00000000  0.10893979  0.00000000       0.003
   0.00000000  0.11153360  0.00000000       0.003
   0.00000000  0.11412740  0.00000000       0.003
   0.00000000  0.11672120  0.00000000       0.003
   0.00000000  0.11931501  0.00000000       0.003
   0.00000000  0.12190881  0.00000000       0.003
   0.00000000  0.12450262  0.00000000       0.003
   0.00000000  0.12709642  0.00000000       0.003
   0.00000000  0.12709642  0.00000000       0.003
   0.00259380  0.12709642  0.00000000       0.003
   0.00518761  0.12709642  0.00000000       0.003
   0.00778141  0.12709642  0.00000000       0.003
   0.01037522  0.12709642  0.00000000       0.003
   0.01296902  0.12709642  0.00000000       0.003
   0.01556283  0.12709642  0.00000000       0.003
   0.01815663  0.12709642  0.00000000       0.003
   0.02075044  0.12709642  0.00000000       0.003
   0.02334424  0.12709642  0.00000000       0.003
   0.02593805  0.12709642  0.00000000       0.003
   0.02853185  0.12709642  0.00000000       0.003
   0.03112565  0.12709642  0.00000000       0.003
   0.03371946  0.12709642  0.00000000       0.003
   0.03631326  0.12709642  0.00000000       0.003
   0.03890707  0.12709642  0.00000000       0.003
   0.04150087  0.12709642  0.00000000       0.003
   0.04409468  0.12709642  0.00000000       0.003
   0.04668848  0.12709642  0.00000000       0.003
   0.04928229  0.12709642  0.00000000       0.003
   0.05187609  0.12709642  0.00000000       0.003
   0.05446990  0.12709642  0.00000000       0.003
   0.05706370  0.12709642  0.00000000       0.003
   0.05965750  0.12709642  0.00000000       0.003
   0.06225131  0.12709642  0.00000000       0.003
   0.06484511  0.12709642  0.00000000       0.003
   0.06743892  0.12709642  0.00000000       0.003
   0.07003272  0.12709642  0.00000000       0.003
   0.07262653  0.12709642  0.00000000       0.003
   0.07522033  0.12709642  0.00000000       0.003
   0.07781414  0.12709642  0.00000000       0.003
   0.08040794  0.12709642  0.00000000       0.003
   0.08300175  0.12709642  0.00000000       0.003
   0.08559555  0.12709642  0.00000000       0.003
   0.08818935  0.12709642  0.00000000       0.003
   0.09078316  0.12709642  0.00000000       0.003
   0.09337696  0.12709642  0.00000000       0.003
   0.09597077  0.12709642  0.00000000       0.003
   0.09856457  0.12709642  0.00000000       0.003
   0.10115838  0.12709642  0.00000000       0.003
   0.10375218  0.12709642  0.00000000       0.003
   0.10634599  0.12709642  0.00000000       0.003
   0.10893979  0.12709642  0.00000000       0.003
   0.11153360  0.12709642  0.00000000       0.003
   0.11412740  0.12709642  0.00000000       0.003
   0.11672120  0.12709642  0.00000000       0.003
   0.11931501  0.12709642  0.00000000       0.003
   0.12190881  0.12709642  0.00000000       0.003
   0.12450262  0.12709642  0.00000000       0.003
   0.12709642  0.12709642  0.00000000       0.003
   0.12709642  0.12709642  0.00000000       0.003
   0.12450262  0.12450262  0.00000000       0.003
   0.12190881  0.12190881  0.00000000       0.003
   0.11931501  0.11931501  0.00000000       0.003
   0.11672120  0.11672120  0.00000000       0.003
   0.11412740  0.11412740  0.00000000       0.003
   0.11153360  0.11153360  0.00000000       0.003
   0.10893979  0.10893979  0.00000000       0.003
   0.10634599  0.10634599  0.00000000       0.003
   0.10375218  0.10375218  0.00000000       0.003
   0.10115838  0.10115838  0.00000000       0.003
   0.09856457  0.09856457  0.00000000       0.003
   0.09597077  0.09597077  0.00000000       0.003
   0.09337696  0.09337696  0.00000000       0.003
   0.09078316  0.09078316  0.00000000       0.003
   0.08818935  0.08818935  0.00000000       0.003
   0.08559555  0.08559555  0.00000000       0.003
   0.08300175  0.08300175  0.00000000       0.003
   0.08040794  0.08040794  0.00000000       0.003
   0.07781414  0.07781414  0.00000000       0.003
   0.07522033  0.07522033  0.00000000       0.003
   0.07262653  0.07262653  0.00000000       0.003
   0.07003272  0.07003272  0.00000000       0.003
   0.06743892  0.06743892  0.00000000       0.003
   0.06484511  0.06484511  0.00000000       0.003
   0.06225131  0.06225131  0.00000000       0.003
   0.05965750  0.05965750  0.00000000       0.003
   0.05706370  0.05706370  0.00000000       0.003
   0.05446990  0.05446990  0.00000000       0.003
   0.05187609  0.05187609  0.00000000       0.003
   0.04928229  0.04928229  0.00000000       0.003
   0.04668848  0.04668848  0.00000000       0.003
   0.04409468  0.04409468  0.00000000       0.003
   0.04150087  0.04150087  0.00000000       0.003
   0.03890707  0.03890707  0.00000000       0.003
   0.03631326  0.03631326  0.00000000       0.003
   0.03371946  0.03371946  0.00000000       0.003
   0.03112565  0.03112565  0.00000000       0.003
   0.02853185  0.02853185  0.00000000       0.003
   0.02593805  0.02593805  0.00000000       0.003
   0.02334424  0.02334424  0.00000000       0.003
   0.02075044  0.02075044  0.00000000       0.003
   0.01815663  0.01815663  0.00000000       0.003
   0.01556283  0.01556283  0.00000000       0.003
   0.01296902  0.01296902  0.00000000       0.003
   0.01037522  0.01037522  0.00000000       0.003
   0.00778141  0.00778141  0.00000000       0.003
   0.00518761  0.00518761  0.00000000       0.003
   0.00259380  0.00259380  0.00000000       0.003
   0.00000000  0.00000000  0.00000000       0.003
   0.00000000  0.00000000  0.00000000       0.003
   0.00259380  0.00259380  0.00259329       0.003
   0.00518761  0.00518761  0.00518658       0.003
   0.00778141  0.00778141  0.00777987       0.003
   0.01037522  0.01037522  0.01037315       0.003
   0.01296902  0.01296902  0.01296644       0.003
   0.01556283  0.01556283  0.01555973       0.003
   0.01815663  0.01815663  0.01815302       0.003
   0.02075044  0.02075044  0.02074631       0.003
   0.02334424  0.02334424  0.02333960       0.003
   0.02593805  0.02593805  0.02593289       0.003
   0.02853185  0.02853185  0.02852617       0.003
   0.03112565  0.03112565  0.03111946       0.003
   0.03371946  0.03371946  0.03371275       0.003
   0.03631326  0.03631326  0.03630604       0.003
   0.03890707  0.03890707  0.03889933       0.003
   0.04150087  0.04150087  0.04149262       0.003
   0.04409468  0.04409468  0.04408590       0.003
   0.04668848  0.04668848  0.04667919       0.003
   0.04928229  0.04928229  0.04927248       0.003
   0.05187609  0.05187609  0.05186577       0.003
   0.05446990  0.05446990  0.05445906       0.003
   0.05706370  0.05706370  0.05705235       0.003
   0.05965750  0.05965750  0.05964564       0.003
   0.06225131  0.06225131  0.06223892       0.003
   0.06484511  0.06484511  0.06483221       0.003
   0.06743892  0.06743892  0.06742550       0.003
   0.07003272  0.07003272  0.07001879       0.003
   0.07262653  0.07262653  0.07261208       0.003
   0.07522033  0.07522033  0.07520537       0.003
   0.07781414  0.07781414  0.07779866       0.003
   0.08040794  0.08040794  0.08039194       0.003
   0.08300175  0.08300175  0.08298523       0.003
   0.08559555  0.08559555  0.08557852       0.003
   0.08818935  0.08818935  0.08817181       0.003
   0.09078316  0.09078316  0.09076510       0.003
   0.09337696  0.09337696  0.09335839       0.003
   0.09597077  0.09597077  0.09595167       0.003
   0.09856457  0.09856457  0.09854496       0.003
   0.10115838  0.10115838  0.10113825       0.003
   0.10375218  0.10375218  0.10373154       0.003
   0.10634599  0.10634599  0.10632483       0.003
   0.10893979  0.10893979  0.10891812       0.003
   0.11153360  0.11153360  0.11151141       0.003
   0.11412740  0.11412740  0.11410469       0.003
   0.11672120  0.11672120  0.11669798       0.003
   0.11931501  0.11931501  0.11929127       0.003
   0.12190881  0.12190881  0.12188456       0.003
   0.12450262  0.12450262  0.12447785       0.003
   0.12709642  0.12709642  0.12707114       0.003
   0.12709642  0.12709642  0.12707114       0.003
   0.12450262  0.12709642  0.12447785       0.003
   0.12190881  0.12709642  0.12188456       0.003
   0.11931501  0.12709642  0.11929127       0.003
   0.11672120  0.12709642  0.11669798       0.003
   0.11412740  0.12709642  0.11410469       0.003
   0.11153360  0.12709642  0.11151141       0.003
   0.10893979  0.12709642  0.10891812       0.003
   0.10634599  0.12709642  0.10632483       0.003
   0.10375218  0.12709642  0.10373154       0.003
   0.10115838  0.12709642  0.10113825       0.003
   0.09856457  0.12709642  0.09854496       0.003
   0.09597077  0.12709642  0.09595167       0.003
   0.09337696  0.12709642  0.09335839       0.003
   0.09078316  0.12709642  0.09076510       0.003
   0.08818935  0.12709642  0.08817181       0.003
   0.08559555  0.12709642  0.08557852       0.003
   0.08300175  0.12709642  0.08298523       0.003
   0.08040794  0.12709642  0.08039194       0.003
   0.07781414  0.12709642  0.07779866       0.003
   0.07522033  0.12709642  0.07520537       0.003
   0.07262653  0.12709642  0.07261208       0.003
   0.07003272  0.12709642  0.07001879       0.003
   0.06743892  0.12709642  0.06742550       0.003
   0.06484511  0.12709642  0.06483221       0.003
   0.06225131  0.12709642  0.06223892       0.003
   0.05965750  0.12709642  0.05964564       0.003
   0.05706370  0.12709642  0.05705235       0.003
   0.05446990  0.12709642  0.05445906       0.003
   0.05187609  0.12709642  0.05186577       0.003
   0.04928229  0.12709642  0.04927248       0.003
   0.04668848  0.12709642  0.04667919       0.003
   0.04409468  0.12709642  0.04408590       0.003
   0.04150087  0.12709642  0.04149262       0.003
   0.03890707  0.12709642  0.03889933       0.003
   0.03631326  0.12709642  0.03630604       0.003
   0.03371946  0.12709642  0.03371275       0.003
   0.03112565  0.12709642  0.03111946       0.003
   0.02853185  0.12709642  0.02852617       0.003
   0.02593805  0.12709642  0.02593289       0.003
   0.02334424  0.12709642  0.02333960       0.003
   0.02075044  0.12709642  0.02074631       0.003
   0.01815663  0.12709642  0.01815302       0.003
   0.01556283  0.12709642  0.01555973       0.003
   0.01296902  0.12709642  0.01296644       0.003
   0.01037522  0.12709642  0.01037315       0.003
   0.00778141  0.12709642  0.00777987       0.003
   0.00518761  0.12709642  0.00518658       0.003
   0.00259380  0.12709642  0.00259329       0.003
   0.00000000  0.12709642  0.00000000       0.003
   0.12709642  0.12709642  0.00000000       0.003
   0.12709642  0.12709642  0.00259329       0.003
   0.12709642  0.12709642  0.00518658       0.003
   0.12709642  0.12709642  0.00777987       0.003
   0.12709642  0.12709642  0.01037315       0.003
   0.12709642  0.12709642  0.01296644       0.003
   0.12709642  0.12709642  0.01555973       0.003
   0.12709642  0.12709642  0.01815302       0.003
   0.12709642  0.12709642  0.02074631       0.003
   0.12709642  0.12709642  0.02333960       0.003
   0.12709642  0.12709642  0.02593289       0.003
   0.12709642  0.12709642  0.02852617       0.003
   0.12709642  0.12709642  0.03111946       0.003
   0.12709642  0.12709642  0.03371275       0.003
   0.12709642  0.12709642  0.03630604       0.003
   0.12709642  0.12709642  0.03889933       0.003
   0.12709642  0.12709642  0.04149262       0.003
   0.12709642  0.12709642  0.04408590       0.003
   0.12709642  0.12709642  0.04667919       0.003
   0.12709642  0.12709642  0.04927248       0.003
   0.12709642  0.12709642  0.05186577       0.003
   0.12709642  0.12709642  0.05445906       0.003
   0.12709642  0.12709642  0.05705235       0.003
   0.12709642  0.12709642  0.05964564       0.003
   0.12709642  0.12709642  0.06223892       0.003
   0.12709642  0.12709642  0.06483221       0.003
   0.12709642  0.12709642  0.06742550       0.003
   0.12709642  0.12709642  0.07001879       0.003
   0.12709642  0.12709642  0.07261208       0.003
   0.12709642  0.12709642  0.07520537       0.003
   0.12709642  0.12709642  0.07779866       0.003
   0.12709642  0.12709642  0.08039194       0.003
   0.12709642  0.12709642  0.08298523       0.003
   0.12709642  0.12709642  0.08557852       0.003
   0.12709642  0.12709642  0.08817181       0.003
   0.12709642  0.12709642  0.09076510       0.003
   0.12709642  0.12709642  0.09335839       0.003
   0.12709642  0.12709642  0.09595167       0.003
   0.12709642  0.12709642  0.09854496       0.003
   0.12709642  0.12709642  0.10113825       0.003
   0.12709642  0.12709642  0.10373154       0.003
   0.12709642  0.12709642  0.10632483       0.003
   0.12709642  0.12709642  0.10891812       0.003
   0.12709642  0.12709642  0.11151141       0.003
   0.12709642  0.12709642  0.11410469       0.003
   0.12709642  0.12709642  0.11669798       0.003
   0.12709642  0.12709642  0.11929127       0.003
   0.12709642  0.12709642  0.12188456       0.003
   0.12709642  0.12709642  0.12447785       0.003
   0.12709642  0.12709642  0.12707114       0.003
 
 k-points in reciprocal lattice and weights: CUB (simple cubic) G-X-M-G-R-X M-R      
   0.00000000  0.00000000  0.00000000       0.003
   0.00000000  0.01020408  0.00000000       0.003
   0.00000000  0.02040816  0.00000000       0.003
   0.00000000  0.03061224  0.00000000       0.003
   0.00000000  0.04081633  0.00000000       0.003
   0.00000000  0.05102041  0.00000000       0.003
   0.00000000  0.06122449  0.00000000       0.003
   0.00000000  0.07142857  0.00000000       0.003
   0.00000000  0.08163265  0.00000000       0.003
   0.00000000  0.09183673  0.00000000       0.003
   0.00000000  0.10204082  0.00000000       0.003
   0.00000000  0.11224490  0.00000000       0.003
   0.00000000  0.12244898  0.00000000       0.003
   0.00000000  0.13265306  0.00000000       0.003
   0.00000000  0.14285714  0.00000000       0.003
   0.00000000  0.15306122  0.00000000       0.003
   0.00000000  0.16326531  0.00000000       0.003
   0.00000000  0.17346939  0.00000000       0.003
   0.00000000  0.18367347  0.00000000       0.003
   0.00000000  0.19387755  0.00000000       0.003
   0.00000000  0.20408163  0.00000000       0.003
   0.00000000  0.21428571  0.00000000       0.003
   0.00000000  0.22448980  0.00000000       0.003
   0.00000000  0.23469388  0.00000000       0.003
   0.00000000  0.24489796  0.00000000       0.003
   0.00000000  0.25510204  0.00000000       0.003
   0.00000000  0.26530612  0.00000000       0.003
   0.00000000  0.27551020  0.00000000       0.003
   0.00000000  0.28571429  0.00000000       0.003
   0.00000000  0.29591837  0.00000000       0.003
   0.00000000  0.30612245  0.00000000       0.003
   0.00000000  0.31632653  0.00000000       0.003
   0.00000000  0.32653061  0.00000000       0.003
   0.00000000  0.33673469  0.00000000       0.003
   0.00000000  0.34693878  0.00000000       0.003
   0.00000000  0.35714286  0.00000000       0.003
   0.00000000  0.36734694  0.00000000       0.003
   0.00000000  0.37755102  0.00000000       0.003
   0.00000000  0.38775510  0.00000000       0.003
   0.00000000  0.39795918  0.00000000       0.003
   0.00000000  0.40816327  0.00000000       0.003
   0.00000000  0.41836735  0.00000000       0.003
   0.00000000  0.42857143  0.00000000       0.003
   0.00000000  0.43877551  0.00000000       0.003
   0.00000000  0.44897959  0.00000000       0.003
   0.00000000  0.45918367  0.00000000       0.003
   0.00000000  0.46938776  0.00000000       0.003
   0.00000000  0.47959184  0.00000000       0.003
   0.00000000  0.48979592  0.00000000       0.003
   0.00000000  0.50000000  0.00000000       0.003
   0.00000000  0.50000000  0.00000000       0.003
   0.01020408  0.50000000  0.00000000       0.003
   0.02040816  0.50000000  0.00000000       0.003
   0.03061224  0.50000000  0.00000000       0.003
   0.04081633  0.50000000  0.00000000       0.003
   0.05102041  0.50000000  0.00000000       0.003
   0.06122449  0.50000000  0.00000000       0.003
   0.07142857  0.50000000  0.00000000       0.003
   0.08163265  0.50000000  0.00000000       0.003
   0.09183673  0.50000000  0.00000000       0.003
   0.10204082  0.50000000  0.00000000       0.003
   0.11224490  0.50000000  0.00000000       0.003
   0.12244898  0.50000000  0.00000000       0.003
   0.13265306  0.50000000  0.00000000       0.003
   0.14285714  0.50000000  0.00000000       0.003
   0.15306122  0.50000000  0.00000000       0.003
   0.16326531  0.50000000  0.00000000       0.003
   0.17346939  0.50000000  0.00000000       0.003
   0.18367347  0.50000000  0.00000000       0.003
   0.19387755  0.50000000  0.00000000       0.003
   0.20408163  0.50000000  0.00000000       0.003
   0.21428571  0.50000000  0.00000000       0.003
   0.22448980  0.50000000  0.00000000       0.003
   0.23469388  0.50000000  0.00000000       0.003
   0.24489796  0.50000000  0.00000000       0.003
   0.25510204  0.50000000  0.00000000       0.003
   0.26530612  0.50000000  0.00000000       0.003
   0.27551020  0.50000000  0.00000000       0.003
   0.28571429  0.50000000  0.00000000       0.003
   0.29591837  0.50000000  0.00000000       0.003
   0.30612245  0.50000000  0.00000000       0.003
   0.31632653  0.50000000  0.00000000       0.003
   0.32653061  0.50000000  0.00000000       0.003
   0.33673469  0.50000000  0.00000000       0.003
   0.34693878  0.50000000  0.00000000       0.003
   0.35714286  0.50000000  0.00000000       0.003
   0.36734694  0.50000000  0.00000000       0.003
   0.37755102  0.50000000  0.00000000       0.003
   0.38775510  0.50000000  0.00000000       0.003
   0.39795918  0.50000000  0.00000000       0.003
   0.40816327  0.50000000  0.00000000       0.003
   0.41836735  0.50000000  0.00000000       0.003
   0.42857143  0.50000000  0.00000000       0.003
   0.43877551  0.50000000  0.00000000       0.003
   0.44897959  0.50000000  0.00000000       0.003
   0.45918367  0.50000000  0.00000000       0.003
   0.46938776  0.50000000  0.00000000       0.003
   0.47959184  0.50000000  0.00000000       0.003
   0.48979592  0.50000000  0.00000000       0.003
   0.50000000  0.50000000  0.00000000       0.003
   0.50000000  0.50000000  0.00000000       0.003
   0.48979592  0.48979592  0.00000000       0.003
   0.47959184  0.47959184  0.00000000       0.003
   0.46938776  0.46938776  0.00000000       0.003
   0.45918367  0.45918367  0.00000000       0.003
   0.44897959  0.44897959  0.00000000       0.003
   0.43877551  0.43877551  0.00000000       0.003
   0.42857143  0.42857143  0.00000000       0.003
   0.41836735  0.41836735  0.00000000       0.003
   0.40816327  0.40816327  0.00000000       0.003
   0.39795918  0.39795918  0.00000000       0.003
   0.38775510  0.38775510  0.00000000       0.003
   0.37755102  0.37755102  0.00000000       0.003
   0.36734694  0.36734694  0.00000000       0.003
   0.35714286  0.35714286  0.00000000       0.003
   0.34693878  0.34693878  0.00000000       0.003
   0.33673469  0.33673469  0.00000000       0.003
   0.32653061  0.32653061  0.00000000       0.003
   0.31632653  0.31632653  0.00000000       0.003
   0.30612245  0.30612245  0.00000000       0.003
   0.29591837  0.29591837  0.00000000       0.003
   0.28571429  0.28571429  0.00000000       0.003
   0.27551020  0.27551020  0.00000000       0.003
   0.26530612  0.26530612  0.00000000       0.003
   0.25510204  0.25510204  0.00000000       0.003
   0.24489796  0.24489796  0.00000000       0.003
   0.23469388  0.23469388  0.00000000       0.003
   0.22448980  0.22448980  0.00000000       0.003
   0.21428571  0.21428571  0.00000000       0.003
   0.20408163  0.20408163  0.00000000       0.003
   0.19387755  0.19387755  0.00000000       0.003
   0.18367347  0.18367347  0.00000000       0.003
   0.17346939  0.17346939  0.00000000       0.003
   0.16326531  0.16326531  0.00000000       0.003
   0.15306122  0.15306122  0.00000000       0.003
   0.14285714  0.14285714  0.00000000       0.003
   0.13265306  0.13265306  0.00000000       0.003
   0.12244898  0.12244898  0.00000000       0.003
   0.11224490  0.11224490  0.00000000       0.003
   0.10204082  0.10204082  0.00000000       0.003
   0.09183673  0.09183673  0.00000000       0.003
   0.08163265  0.08163265  0.00000000       0.003
   0.07142857  0.07142857  0.00000000       0.003
   0.06122449  0.06122449  0.00000000       0.003
   0.05102041  0.05102041  0.00000000       0.003
   0.04081633  0.04081633  0.00000000       0.003
   0.03061224  0.03061224  0.00000000       0.003
   0.02040816  0.02040816  0.00000000       0.003
   0.01020408  0.01020408  0.00000000       0.003
   0.00000000  0.00000000  0.00000000       0.003
   0.00000000  0.00000000  0.00000000       0.003
   0.01020408  0.01020408  0.01020408       0.003
   0.02040816  0.02040816  0.02040816       0.003
   0.03061224  0.03061224  0.03061224       0.003
   0.04081633  0.04081633  0.04081633       0.003
   0.05102041  0.05102041  0.05102041       0.003
   0.06122449  0.06122449  0.06122449       0.003
   0.07142857  0.07142857  0.07142857       0.003
   0.08163265  0.08163265  0.08163265       0.003
   0.09183673  0.09183673  0.09183673       0.003
   0.10204082  0.10204082  0.10204082       0.003
   0.11224490  0.11224490  0.11224490       0.003
   0.12244898  0.12244898  0.12244898       0.003
   0.13265306  0.13265306  0.13265306       0.003
   0.14285714  0.14285714  0.14285714       0.003
   0.15306122  0.15306122  0.15306122       0.003
   0.16326531  0.16326531  0.16326531       0.003
   0.17346939  0.17346939  0.17346939       0.003
   0.18367347  0.18367347  0.18367347       0.003
   0.19387755  0.19387755  0.19387755       0.003
   0.20408163  0.20408163  0.20408163       0.003
   0.21428571  0.21428571  0.21428571       0.003
   0.22448980  0.22448980  0.22448980       0.003
   0.23469388  0.23469388  0.23469388       0.003
   0.24489796  0.24489796  0.24489796       0.003
   0.25510204  0.25510204  0.25510204       0.003
   0.26530612  0.26530612  0.26530612       0.003
   0.27551020  0.27551020  0.27551020       0.003
   0.28571429  0.28571429  0.28571429       0.003
   0.29591837  0.29591837  0.29591837       0.003
   0.30612245  0.30612245  0.30612245       0.003
   0.31632653  0.31632653  0.31632653       0.003
   0.32653061  0.32653061  0.32653061       0.003
   0.33673469  0.33673469  0.33673469       0.003
   0.34693878  0.34693878  0.34693878       0.003
   0.35714286  0.35714286  0.35714286       0.003
   0.36734694  0.36734694  0.36734694       0.003
   0.37755102  0.37755102  0.37755102       0.003
   0.38775510  0.38775510  0.38775510       0.003
   0.39795918  0.39795918  0.39795918       0.003
   0.40816327  0.40816327  0.40816327       0.003
   0.41836735  0.41836735  0.41836735       0.003
   0.42857143  0.42857143  0.42857143       0.003
   0.43877551  0.43877551  0.43877551       0.003
   0.44897959  0.44897959  0.44897959       0.003
   0.45918367  0.45918367  0.45918367       0.003
   0.46938776  0.46938776  0.46938776       0.003
   0.47959184  0.47959184  0.47959184       0.003
   0.48979592  0.48979592  0.48979592       0.003
   0.50000000  0.50000000  0.50000000       0.003
   0.50000000  0.50000000  0.50000000       0.003
   0.48979592  0.50000000  0.48979592       0.003
   0.47959184  0.50000000  0.47959184       0.003
   0.46938776  0.50000000  0.46938776       0.003
   0.45918367  0.50000000  0.45918367       0.003
   0.44897959  0.50000000  0.44897959       0.003
   0.43877551  0.50000000  0.43877551       0.003
   0.42857143  0.50000000  0.42857143       0.003
   0.41836735  0.50000000  0.41836735       0.003
   0.40816327  0.50000000  0.40816327       0.003
   0.39795918  0.50000000  0.39795918       0.003
   0.38775510  0.50000000  0.38775510       0.003
   0.37755102  0.50000000  0.37755102       0.003
   0.36734694  0.50000000  0.36734694       0.003
   0.35714286  0.50000000  0.35714286       0.003
   0.34693878  0.50000000  0.34693878       0.003
   0.33673469  0.50000000  0.33673469       0.003
   0.32653061  0.50000000  0.32653061       0.003
   0.31632653  0.50000000  0.31632653       0.003
   0.30612245  0.50000000  0.30612245       0.003
   0.29591837  0.50000000  0.29591837       0.003
   0.28571429  0.50000000  0.28571429       0.003
   0.27551020  0.50000000  0.27551020       0.003
   0.26530612  0.50000000  0.26530612       0.003
   0.25510204  0.50000000  0.25510204       0.003
   0.24489796  0.50000000  0.24489796       0.003
   0.23469388  0.50000000  0.23469388       0.003
   0.22448980  0.50000000  0.22448980       0.003
   0.21428571  0.50000000  0.21428571       0.003
   0.20408163  0.50000000  0.20408163       0.003
   0.19387755  0.50000000  0.19387755       0.003
   0.18367347  0.50000000  0.18367347       0.003
   0.17346939  0.50000000  0.17346939       0.003
   0.16326531  0.50000000  0.16326531       0.003
   0.15306122  0.50000000  0.15306122       0.003
   0.14285714  0.50000000  0.14285714       0.003
   0.13265306  0.50000000  0.13265306       0.003
   0.12244898  0.50000000  0.12244898       0.003
   0.11224490  0.50000000  0.11224490       0.003
   0.10204082  0.50000000  0.10204082       0.003
   0.09183673  0.50000000  0.09183673       0.003
   0.08163265  0.50000000  0.08163265       0.003
   0.07142857  0.50000000  0.07142857       0.003
   0.06122449  0.50000000  0.06122449       0.003
   0.05102041  0.50000000  0.05102041       0.003
   0.04081633  0.50000000  0.04081633       0.003
   0.03061224  0.50000000  0.03061224       0.003
   0.02040816  0.50000000  0.02040816       0.003
   0.01020408  0.50000000  0.01020408       0.003
   0.00000000  0.50000000  0.00000000       0.003
   0.50000000  0.50000000  0.00000000       0.003
   0.50000000  0.50000000  0.01020408       0.003
   0.50000000  0.50000000  0.02040816       0.003
   0.50000000  0.50000000  0.03061224       0.003
   0.50000000  0.50000000  0.04081633       0.003
   0.50000000  0.50000000  0.05102041       0.003
   0.50000000  0.50000000  0.06122449       0.003
   0.50000000  0.50000000  0.07142857       0.003
   0.50000000  0.50000000  0.08163265       0.003
   0.50000000  0.50000000  0.09183673       0.003
   0.50000000  0.50000000  0.10204082       0.003
   0.50000000  0.50000000  0.11224490       0.003
   0.50000000  0.50000000  0.12244898       0.003
   0.50000000  0.50000000  0.13265306       0.003
   0.50000000  0.50000000  0.14285714       0.003
   0.50000000  0.50000000  0.15306122       0.003
   0.50000000  0.50000000  0.16326531       0.003
   0.50000000  0.50000000  0.17346939       0.003
   0.50000000  0.50000000  0.18367347       0.003
   0.50000000  0.50000000  0.19387755       0.003
   0.50000000  0.50000000  0.20408163       0.003
   0.50000000  0.50000000  0.21428571       0.003
   0.50000000  0.50000000  0.22448980       0.003
   0.50000000  0.50000000  0.23469388       0.003
   0.50000000  0.50000000  0.24489796       0.003
   0.50000000  0.50000000  0.25510204       0.003
   0.50000000  0.50000000  0.26530612       0.003
   0.50000000  0.50000000  0.27551020       0.003
   0.50000000  0.50000000  0.28571429       0.003
   0.50000000  0.50000000  0.29591837       0.003
   0.50000000  0.50000000  0.30612245       0.003
   0.50000000  0.50000000  0.31632653       0.003
   0.50000000  0.50000000  0.32653061       0.003
   0.50000000  0.50000000  0.33673469       0.003
   0.50000000  0.50000000  0.34693878       0.003
   0.50000000  0.50000000  0.35714286       0.003
   0.50000000  0.50000000  0.36734694       0.003
   0.50000000  0.50000000  0.37755102       0.003
   0.50000000  0.50000000  0.38775510       0.003
   0.50000000  0.50000000  0.39795918       0.003
   0.50000000  0.50000000  0.40816327       0.003
   0.50000000  0.50000000  0.41836735       0.003
   0.50000000  0.50000000  0.42857143       0.003
   0.50000000  0.50000000  0.43877551       0.003
   0.50000000  0.50000000  0.44897959       0.003
   0.50000000  0.50000000  0.45918367       0.003
   0.50000000  0.50000000  0.46938776       0.003
   0.50000000  0.50000000  0.47959184       0.003
   0.50000000  0.50000000  0.48979592       0.003
   0.50000000  0.50000000  0.50000000       0.003
 
 position of ions in fractional coordinates (direct lattice) 
   0.00000000  0.00000000  0.00000000
   0.50000000  0.50000000  0.00000000
   0.50000000  0.00000000  0.50000000
   0.00000000  0.50000000  0.50000000
 
 position of ions in cartesian coordinates  (Angst):
   0.00000000  0.00000000  0.00000000
   1.96701052  1.96701052  0.00000000
   1.96701052 -0.00000000  1.96740193
   0.00000000  1.96701052  1.96740193
 
 Euler angles ALPHA=     0.0000000  BETA=     0.0000000

 transformation matrix from SAXIS to cartesian coordinates
 ---------------------------------------------------------
     1.0000000 m_x     0.0000000 m_y     0.0000000 m_z
     0.0000000 m_x     1.0000000 m_y     0.0000000 m_z
     0.0000000 m_x     0.0000000 m_y     1.0000000 m_z

 transformation matrix from cartesian coordinates to SAXIS
 ---------------------------------------------------------
     1.0000000 m_x     0.0000000 m_y     0.0000000 m_z
     0.0000000 m_x     1.0000000 m_y     0.0000000 m_z
     0.0000000 m_x     0.0000000 m_y     1.0000000 m_z




--------------------------------------------------------------------------------------------------------


 k-point  1 :   0.0000 0.0000 0.0000  plane waves:    2282
 k-point  2 :   0.0000 0.0102 0.0000  plane waves:    2282
 k-point  3 :   0.0000 0.0204 0.0000  plane waves:    2238
 k-point  4 :   0.0000 0.0306 0.0000  plane waves:    2226
 k-point  5 :   0.0000 0.0408 0.0000  plane waves:    2218
 k-point  6 :   0.0000 0.0510 0.0000  plane waves:    2210
 k-point  7 :   0.0000 0.0612 0.0000  plane waves:    2210
 k-point  8 :   0.0000 0.0714 0.0000  plane waves:    2210
 k-point  9 :   0.0000 0.0816 0.0000  plane waves:    2202
 k-point 10 :   0.0000 0.0918 0.0000  plane waves:    2210
 k-point 11 :   0.0000 0.1020 0.0000  plane waves:    2202
 k-point 12 :   0.0000 0.1122 0.0000  plane waves:    2218
 k-point 13 :   0.0000 0.1224 0.0000  plane waves:    2218
 k-point 14 :   0.0000 0.1327 0.0000  plane waves:    2218
 k-point 15 :   0.0000 0.1429 0.0000  plane waves:    2218
 k-point 16 :   0.0000 0.1531 0.0000  plane waves:    2218
 k-point 17 :   0.0000 0.1633 0.0000  plane waves:    2218
 k-point 18 :   0.0000 0.1735 0.0000  plane waves:    2218
 k-point 19 :   0.0000 0.1837 0.0000  plane waves:    2218
 k-point 20 :   0.0000 0.1939 0.0000  plane waves:    2226
 k-point 21 :   0.0000 0.2041 0.0000  plane waves:    2226
 k-point 22 :   0.0000 0.2143 0.0000  plane waves:    2226
 k-point 23 :   0.0000 0.2245 0.0000  plane waves:    2226
 k-point 24 :   0.0000 0.2347 0.0000  plane waves:    2226
 k-point 25 :   0.0000 0.2449 0.0000  plane waves:    2234
 k-point 26 :   0.0000 0.2551 0.0000  plane waves:    2234
 k-point 27 :   0.0000 0.2653 0.0000  plane waves:    2226
 k-point 28 :   0.0000 0.2755 0.0000  plane waves:    2218
 k-point 29 :   0.0000 0.2857 0.0000  plane waves:    2218
 k-point 30 :   0.0000 0.2959 0.0000  plane waves:    2218
 k-point 31 :   0.0000 0.3061 0.0000  plane waves:    2218
 k-point 32 :   0.0000 0.3163 0.0000  plane waves:    2202
 k-point 33 :   0.0000 0.3265 0.0000  plane waves:    2218
 k-point 34 :   0.0000 0.3367 0.0000  plane waves:    2226
 k-point 35 :   0.0000 0.3469 0.0000  plane waves:    2218
 k-point 36 :   0.0000 0.3571 0.0000  plane waves:    2218
 k-point 37 :   0.0000 0.3673 0.0000  plane waves:    2218
 k-point 38 :   0.0000 0.3776 0.0000  plane waves:    2218
 k-point 39 :   0.0000 0.3878 0.0000  plane waves:    2218
 k-point 40 :   0.0000 0.3980 0.0000  plane waves:    2218
 k-point 41 :   0.0000 0.4082 0.0000  plane waves:    2226
 k-point 42 :   0.0000 0.4184 0.0000  plane waves:    2232
 k-point 43 :   0.0000 0.4286 0.0000  plane waves:    2232
 k-point 44 :   0.0000 0.4388 0.0000  plane waves:    2232
 k-point 45 :   0.0000 0.4490 0.0000  plane waves:    2232
 k-point 46 :   0.0000 0.4592 0.0000  plane waves:    2232
 k-point 47 :   0.0000 0.4694 0.0000  plane waves:    2232
 k-point 48 :   0.0000 0.4796 0.0000  plane waves:    2232
 k-point 49 :   0.0000 0.4898 0.0000  plane waves:    2216
 k-point 50 :   0.0000 0.5000 0.0000  plane waves:    2216
 k-point 51 :   0.0000 0.5000 0.0000  plane waves:    2216
 k-point 52 :   0.0102 0.5000 0.0000  plane waves:    2232
 k-point 53 :   0.0204 0.5000 0.0000  plane waves:    2240
 k-point 54 :   0.0306 0.5000 0.0000  plane waves:    2248
 k-point 55 :   0.0408 0.5000 0.0000  plane waves:    2248
 k-point 56 :   0.0510 0.5000 0.0000  plane waves:    2248
 k-point 57 :   0.0612 0.5000 0.0000  plane waves:    2248
 k-point 58 :   0.0714 0.5000 0.0000  plane waves:    2248
 k-point 59 :   0.0816 0.5000 0.0000  plane waves:    2240
 k-point 60 :   0.0918 0.5000 0.0000  plane waves:    2244
 k-point 61 :   0.1020 0.5000 0.0000  plane waves:    2244
 k-point 62 :   0.1122 0.5000 0.0000  plane waves:    2236
 k-point 63 :   0.1224 0.5000 0.0000  plane waves:    2236
 k-point 64 :   0.1327 0.5000 0.0000  plane waves:    2236
 k-point 65 :   0.1429 0.5000 0.0000  plane waves:    2236
 k-point 66 :   0.1531 0.5000 0.0000  plane waves:    2220
 k-point 67 :   0.1633 0.5000 0.0000  plane waves:    2212
 k-point 68 :   0.1735 0.5000 0.0000  plane waves:    2212
 k-point 69 :   0.1837 0.5000 0.0000  plane waves:    2220
 k-point 70 :   0.1939 0.5000 0.0000  plane waves:    2220
 k-point 71 :   0.2041 0.5000 0.0000  plane waves:    2220
 k-point 72 :   0.2143 0.5000 0.0000  plane waves:    2228
 k-point 73 :   0.2245 0.5000 0.0000  plane waves:    2212
 k-point 74 :   0.2347 0.5000 0.0000  plane waves:    2212
 k-point 75 :   0.2449 0.5000 0.0000  plane waves:    2208
 k-point 76 :   0.2551 0.5000 0.0000  plane waves:    2208
 k-point 77 :   0.2653 0.5000 0.0000  plane waves:    2208
 k-point 78 :   0.2755 0.5000 0.0000  plane waves:    2216
 k-point 79 :   0.2857 0.5000 0.0000  plane waves:    2208
 k-point 80 :   0.2959 0.5000 0.0000  plane waves:    2216
 k-point 81 :   0.3061 0.5000 0.0000  plane waves:    2212
 k-point 82 :   0.3163 0.5000 0.0000  plane waves:    2212
 k-point 83 :   0.3265 0.5000 0.0000  plane waves:    2204
 k-point 84 :   0.3367 0.5000 0.0000  plane waves:    2204
 k-point 85 :   0.3469 0.5000 0.0000  plane waves:    2204
 k-point 86 :   0.3571 0.5000 0.0000  plane waves:    2204
 k-point 87 :   0.3673 0.5000 0.0000  plane waves:    2204
 k-point 88 :   0.3776 0.5000 0.0000  plane waves:    2208
 k-point 89 :   0.3878 0.5000 0.0000  plane waves:    2200
 k-point 90 :   0.3980 0.5000 0.0000  plane waves:    2196
 k-point 91 :   0.4082 0.5000 0.0000  plane waves:    2204
 k-point 92 :   0.4184 0.5000 0.0000  plane waves:    2204
 k-point 93 :   0.4286 0.5000 0.0000  plane waves:    2208
 k-point 94 :   0.4388 0.5000 0.0000  plane waves:    2208
 k-point 95 :   0.4490 0.5000 0.0000  plane waves:    2216
 k-point 96 :   0.4592 0.5000 0.0000  plane waves:    2208
 k-point 97 :   0.4694 0.5000 0.0000  plane waves:    2184
 k-point 98 :   0.4796 0.5000 0.0000  plane waves:    2184
 k-point 99 :   0.4898 0.5000 0.0000  plane waves:    2184
 k-point ** :   0.5000 0.5000 0.0000  plane waves:    2184
 k-point ** :   0.5000 0.5000 0.0000  plane waves:    2184
 k-point ** :   0.4898 0.4898 0.0000  plane waves:    2184
 k-point ** :   0.4796 0.4796 0.0000  plane waves:    2188
 k-point ** :   0.4694 0.4694 0.0000  plane waves:    2204
 k-point ** :   0.4592 0.4592 0.0000  plane waves:    2202
 k-point ** :   0.4490 0.4490 0.0000  plane waves:    2198
 k-point ** :   0.4388 0.4388 0.0000  plane waves:    2198
 k-point ** :   0.4286 0.4286 0.0000  plane waves:    2198
 k-point ** :   0.4184 0.4184 0.0000  plane waves:    2202
 k-point ** :   0.4082 0.4082 0.0000  plane waves:    2202
 k-point ** :   0.3980 0.3980 0.0000  plane waves:    2214
 k-point ** :   0.3878 0.3878 0.0000  plane waves:    2202
 k-point ** :   0.3776 0.3776 0.0000  plane waves:    2206
 k-point ** :   0.3673 0.3673 0.0000  plane waves:    2214
 k-point ** :   0.3571 0.3571 0.0000  plane waves:    2206
 k-point ** :   0.3469 0.3469 0.0000  plane waves:    2206
 k-point ** :   0.3367 0.3367 0.0000  plane waves:    2190
 k-point ** :   0.3265 0.3265 0.0000  plane waves:    2198
 k-point ** :   0.3163 0.3163 0.0000  plane waves:    2198
 k-point ** :   0.3061 0.3061 0.0000  plane waves:    2202
 k-point ** :   0.2959 0.2959 0.0000  plane waves:    2218
 k-point ** :   0.2857 0.2857 0.0000  plane waves:    2218
 k-point ** :   0.2755 0.2755 0.0000  plane waves:    2214
 k-point ** :   0.2653 0.2653 0.0000  plane waves:    2214
 k-point ** :   0.2551 0.2551 0.0000  plane waves:    2222
 k-point ** :   0.2449 0.2449 0.0000  plane waves:    2222
 k-point ** :   0.2347 0.2347 0.0000  plane waves:    2222
 k-point ** :   0.2245 0.2245 0.0000  plane waves:    2222
 k-point ** :   0.2143 0.2143 0.0000  plane waves:    2226
 k-point ** :   0.2041 0.2041 0.0000  plane waves:    2226
 k-point ** :   0.1939 0.1939 0.0000  plane waves:    2226
 k-point ** :   0.1837 0.1837 0.0000  plane waves:    2234
 k-point ** :   0.1735 0.1735 0.0000  plane waves:    2226
 k-point ** :   0.1633 0.1633 0.0000  plane waves:    2226
 k-point ** :   0.1531 0.1531 0.0000  plane waves:    2222
 k-point ** :   0.1429 0.1429 0.0000  plane waves:    2214
 k-point ** :   0.1327 0.1327 0.0000  plane waves:    2218
 k-point ** :   0.1224 0.1224 0.0000  plane waves:    2218
 k-point ** :   0.1122 0.1122 0.0000  plane waves:    2210
 k-point ** :   0.1020 0.1020 0.0000  plane waves:    2202
 k-point ** :   0.0918 0.0918 0.0000  plane waves:    2210
 k-point ** :   0.0816 0.0816 0.0000  plane waves:    2202
 k-point ** :   0.0714 0.0714 0.0000  plane waves:    2226
 k-point ** :   0.0612 0.0612 0.0000  plane waves:    2218
 k-point ** :   0.0510 0.0510 0.0000  plane waves:    2218
 k-point ** :   0.0408 0.0408 0.0000  plane waves:    2210
 k-point ** :   0.0306 0.0306 0.0000  plane waves:    2210
 k-point ** :   0.0204 0.0204 0.0000  plane waves:    2226
 k-point ** :   0.0102 0.0102 0.0000  plane waves:    2266
 k-point ** :   0.0000 0.0000 0.0000  plane waves:    2282
 k-point ** :   0.0000 0.0000 0.0000  plane waves:    2282
 k-point ** :   0.0102 0.0102 0.0102  plane waves:    2252
 k-point ** :   0.0204 0.0204 0.0204  plane waves:    2222
 k-point ** :   0.0306 0.0306 0.0306  plane waves:    2198
 k-point ** :   0.0408 0.0408 0.0408  plane waves:    2198
 k-point ** :   0.0510 0.0510 0.0510  plane waves:    2210
 k-point ** :   0.0612 0.0612 0.0612  plane waves:    2222
 k-point ** :   0.0714 0.0714 0.0714  plane waves:    2214
 k-point ** :   0.0816 0.0816 0.0816  plane waves:    2198
 k-point ** :   0.0918 0.0918 0.0918  plane waves:    2204
 k-point ** :   0.1020 0.1020 0.1020  plane waves:    2204
 k-point ** :   0.1122 0.1122 0.1122  plane waves:    2204
 k-point ** :   0.1224 0.1224 0.1224  plane waves:    2204
 k-point ** :   0.1327 0.1327 0.1327  plane waves:    2204
 k-point ** :   0.1429 0.1429 0.1429  plane waves:    2192
 k-point ** :   0.1531 0.1531 0.1531  plane waves:    2198
 k-point ** :   0.1633 0.1633 0.1633  plane waves:    2186
 k-point ** :   0.1735 0.1735 0.1735  plane waves:    2186
 k-point ** :   0.1837 0.1837 0.1837  plane waves:    2198
 k-point ** :   0.1939 0.1939 0.1939  plane waves:    2192
 k-point ** :   0.2041 0.2041 0.2041  plane waves:    2204
 k-point ** :   0.2143 0.2143 0.2143  plane waves:    2204
 k-point ** :   0.2245 0.2245 0.2245  plane waves:    2216
 k-point ** :   0.2347 0.2347 0.2347  plane waves:    2216
 k-point ** :   0.2449 0.2449 0.2449  plane waves:    2216
 k-point ** :   0.2551 0.2551 0.2551  plane waves:    2210
 k-point ** :   0.2653 0.2653 0.2653  plane waves:    2222
 k-point ** :   0.2755 0.2755 0.2755  plane waves:    2222
 k-point ** :   0.2857 0.2857 0.2857  plane waves:    2210
 k-point ** :   0.2959 0.2959 0.2959  plane waves:    2224
 k-point ** :   0.3061 0.3061 0.3061  plane waves:    2224
 k-point ** :   0.3163 0.3163 0.3163  plane waves:    2224
 k-point ** :   0.3265 0.3265 0.3265  plane waves:    2224
 k-point ** :   0.3367 0.3367 0.3367  plane waves:    2224
 k-point ** :   0.3469 0.3469 0.3469  plane waves:    2218
 k-point ** :   0.3571 0.3571 0.3571  plane waves:    2200
 k-point ** :   0.3673 0.3673 0.3673  plane waves:    2200
 k-point ** :   0.3776 0.3776 0.3776  plane waves:    2200
 k-point ** :   0.3878 0.3878 0.3878  plane waves:    2212
 k-point ** :   0.3980 0.3980 0.3980  plane waves:    2200
 k-point ** :   0.4082 0.4082 0.4082  plane waves:    2188
 k-point ** :   0.4184 0.4184 0.4184  plane waves:    2176
 k-point ** :   0.4286 0.4286 0.4286  plane waves:    2164
 k-point ** :   0.4388 0.4388 0.4388  plane waves:    2164
 k-point ** :   0.4490 0.4490 0.4490  plane waves:    2164
 k-point ** :   0.4592 0.4592 0.4592  plane waves:    2164
 k-point ** :   0.4694 0.4694 0.4694  plane waves:    2164
 k-point ** :   0.4796 0.4796 0.4796  plane waves:    2176
 k-point ** :   0.4898 0.4898 0.4898  plane waves:    2176
 k-point ** :   0.5000 0.5000 0.5000  plane waves:    2176
 k-point ** :   0.5000 0.5000 0.5000  plane waves:    2176
 k-point ** :   0.4898 0.5000 0.4898  plane waves:    2176
 k-point ** :   0.4796 0.5000 0.4796  plane waves:    2176
 k-point ** :   0.4694 0.5000 0.4694  plane waves:    2172
 k-point ** :   0.4592 0.5000 0.4592  plane waves:    2168
 k-point ** :   0.4490 0.5000 0.4490  plane waves:    2160
 k-point ** :   0.4388 0.5000 0.4388  plane waves:    2156
 k-point ** :   0.4286 0.5000 0.4286  plane waves:    2156
 k-point ** :   0.4184 0.5000 0.4184  plane waves:    2156
 k-point ** :   0.4082 0.5000 0.4082  plane waves:    2168
 k-point ** :   0.3980 0.5000 0.3980  plane waves:    2176
 k-point ** :   0.3878 0.5000 0.3878  plane waves:    2176
 k-point ** :   0.3776 0.5000 0.3776  plane waves:    2184
 k-point ** :   0.3673 0.5000 0.3673  plane waves:    2184
 k-point ** :   0.3571 0.5000 0.3571  plane waves:    2208
 k-point ** :   0.3469 0.5000 0.3469  plane waves:    2192
 k-point ** :   0.3367 0.5000 0.3367  plane waves:    2192
 k-point ** :   0.3265 0.5000 0.3265  plane waves:    2188
 k-point ** :   0.3163 0.5000 0.3163  plane waves:    2188
 k-point ** :   0.3061 0.5000 0.3061  plane waves:    2188
 k-point ** :   0.2959 0.5000 0.2959  plane waves:    2188
 k-point ** :   0.2857 0.5000 0.2857  plane waves:    2196
 k-point ** :   0.2755 0.5000 0.2755  plane waves:    2196
 k-point ** :   0.2653 0.5000 0.2653  plane waves:    2212
 k-point ** :   0.2551 0.5000 0.2551  plane waves:    2212
 k-point ** :   0.2449 0.5000 0.2449  plane waves:    2212
 k-point ** :   0.2347 0.5000 0.2347  plane waves:    2212
 k-point ** :   0.2245 0.5000 0.2245  plane waves:    2224
 k-point ** :   0.2143 0.5000 0.2143  plane waves:    2208
 k-point ** :   0.2041 0.5000 0.2041  plane waves:    2232
 k-point ** :   0.1939 0.5000 0.1939  plane waves:    2228
 k-point ** :   0.1837 0.5000 0.1837  plane waves:    2236
 k-point ** :   0.1735 0.5000 0.1735  plane waves:    2240
 k-point ** :   0.1633 0.5000 0.1633  plane waves:    2240
 k-point ** :   0.1531 0.5000 0.1531  plane waves:    2240
 k-point ** :   0.1429 0.5000 0.1429  plane waves:    2232
 k-point ** :   0.1327 0.5000 0.1327  plane waves:    2232
 k-point ** :   0.1224 0.5000 0.1224  plane waves:    2232
 k-point ** :   0.1122 0.5000 0.1122  plane waves:    2224
 k-point ** :   0.1020 0.5000 0.1020  plane waves:    2240
 k-point ** :   0.0918 0.5000 0.0918  plane waves:    2236
 k-point ** :   0.0816 0.5000 0.0816  plane waves:    2232
 k-point ** :   0.0714 0.5000 0.0714  plane waves:    2240
 k-point ** :   0.0612 0.5000 0.0612  plane waves:    2232
 k-point ** :   0.0510 0.5000 0.0510  plane waves:    2248
 k-point ** :   0.0408 0.5000 0.0408  plane waves:    2240
 k-point ** :   0.0306 0.5000 0.0306  plane waves:    2240
 k-point ** :   0.0204 0.5000 0.0204  plane waves:    2240
 k-point ** :   0.0102 0.5000 0.0102  plane waves:    2232
 k-point ** :   0.0000 0.5000 0.0000  plane waves:    2216
 k-point ** :   0.5000 0.5000 0.0000  plane waves:    2184
 k-point ** :   0.5000 0.5000 0.0102  plane waves:    2184
 k-point ** :   0.5000 0.5000 0.0204  plane waves:    2184
 k-point ** :   0.5000 0.5000 0.0306  plane waves:    2184
 k-point ** :   0.5000 0.5000 0.0408  plane waves:    2184
 k-point ** :   0.5000 0.5000 0.0510  plane waves:    2184
 k-point ** :   0.5000 0.5000 0.0612  plane waves:    2208
 k-point ** :   0.5000 0.5000 0.0714  plane waves:    2208
 k-point ** :   0.5000 0.5000 0.0816  plane waves:    2208
 k-point ** :   0.5000 0.5000 0.0918  plane waves:    2200
 k-point ** :   0.5000 0.5000 0.1020  plane waves:    2200
 k-point ** :   0.5000 0.5000 0.1122  plane waves:    2216
 k-point ** :   0.5000 0.5000 0.1224  plane waves:    2216
 k-point ** :   0.5000 0.5000 0.1327  plane waves:    2216
 k-point ** :   0.5000 0.5000 0.1429  plane waves:    2216
 k-point ** :   0.5000 0.5000 0.1531  plane waves:    2216
 k-point ** :   0.5000 0.5000 0.1633  plane waves:    2200
 k-point ** :   0.5000 0.5000 0.1735  plane waves:    2200
 k-point ** :   0.5000 0.5000 0.1837  plane waves:    2200
 k-point ** :   0.5000 0.5000 0.1939  plane waves:    2208
 k-point ** :   0.5000 0.5000 0.2041  plane waves:    2208
 k-point ** :   0.5000 0.5000 0.2143  plane waves:    2208
 k-point ** :   0.5000 0.5000 0.2245  plane waves:    2192
 k-point ** :   0.5000 0.5000 0.2347  plane waves:    2192
 k-point ** :   0.5000 0.5000 0.2449  plane waves:    2208
 k-point ** :   0.5000 0.5000 0.2551  plane waves:    2208
 k-point ** :   0.5000 0.5000 0.2653  plane waves:    2192
 k-point ** :   0.5000 0.5000 0.2755  plane waves:    2192
 k-point ** :   0.5000 0.5000 0.2857  plane waves:    2208
 k-point ** :   0.5000 0.5000 0.2959  plane waves:    2208
 k-point ** :   0.5000 0.5000 0.3061  plane waves:    2208
 k-point ** :   0.5000 0.5000 0.3163  plane waves:    2208
 k-point ** :   0.5000 0.5000 0.3265  plane waves:    2192
 k-point ** :   0.5000 0.5000 0.3367  plane waves:    2192
 k-point ** :   0.5000 0.5000 0.3469  plane waves:    2192
 k-point ** :   0.5000 0.5000 0.3571  plane waves:    2168
 k-point ** :   0.5000 0.5000 0.3673  plane waves:    2168
 k-point ** :   0.5000 0.5000 0.3776  plane waves:    2168
 k-point ** :   0.5000 0.5000 0.3878  plane waves:    2160
 k-point ** :   0.5000 0.5000 0.3980  plane waves:    2160
 k-point ** :   0.5000 0.5000 0.4082  plane waves:    2160
 k-point ** :   0.5000 0.5000 0.4184  plane waves:    2160
 k-point ** :   0.5000 0.5000 0.4286  plane waves:    2160
 k-point ** :   0.5000 0.5000 0.4388  plane waves:    2160
 k-point ** :   0.5000 0.5000 0.4490  plane waves:    2160
 k-point ** :   0.5000 0.5000 0.4592  plane waves:    2176
 k-point ** :   0.5000 0.5000 0.4694  plane waves:    2176
 k-point ** :   0.5000 0.5000 0.4796  plane waves:    2176
 k-point ** :   0.5000 0.5000 0.4898  plane waves:    2176
 k-point ** :   0.5000 0.5000 0.5000  plane waves:    2176

 maximum and minimum number of plane-waves per node :       210      160

 maximum number of plane-waves:      2282
 maximum index in each direction: 
   IXMAX=    6   IYMAX=    6   IZMAX=    6
   IXMIN=   -6   IYMIN=   -6   IZMIN=   -6


 parallel 3D FFT for wavefunctions:
    minimum data exchange during FFTs selected (reduces bandwidth)
 parallel 3D FFT for charge:
    minimum data exchange during FFTs selected (reduces bandwidth)


 total amount of memory used by VASP MPI-rank0    54577. kBytes
=======================================================================

   base      :      30000. kBytes
   nonl-proj :       8300. kBytes
   fftplans  :        139. kBytes
   grid      :        486. kBytes
   one-center:         62. kBytes
   wavefun   :      15590. kBytes
 
     INWAV:  cpu time    0.0000: real time    0.0001
 initial charge density was supplied:
 number of electron      43.0000251 magnetization      -0.0000000      0.0000000      1.4211468
 keeping initial charge density in first step


--------------------------------------------------------------------------------------------------------


 Maximum index for augmentation-charges          481 (set IRDMAX)


--------------------------------------------------------------------------------------------------------


 First call to EWALD:  gamma=   0.451
 Maximum number of real-space cells 3x 3x 3
 Maximum number of reciprocal cells 3x 3x 3

    FEWALD:  cpu time    0.0019: real time    0.0019


--------------------------------------- Iteration      1(   1)  ---------------------------------------


    POTLOK:  cpu time    0.0146: real time    0.0157
    SETDIJ:  cpu time    0.0104: real time    0.0104
     EDDAV:  cpu time   18.6659: real time   18.6935
       DOS:  cpu time    0.0023: real time    0.0023
    --------------------------------------------
      LOOP:  cpu time   18.6932: real time   18.7219

 eigenvalue-minimisations  : 36304
 total energy-change (2. order) : 0.3483714E+03  (-0.1956156E+04)
 number of electron      43.0000251 magnetization      -0.0000000      0.0000000      1.4211468
 augmentation part       43.0000251 magnetization      -0.0000000      0.0000000      1.4211468

 Free energy of the ion-electron system (eV)
  ---------------------------------------------------
  alpha Z        PSCENC =       267.72829227
  Ewald energy   TEWEN  =     -3906.35272624
  -Hartree energ DENC   =      -639.80685285
  -exchange      EXHF   =         0.00000000
  -V(xc)+E(xc)   XCENC  =        79.98680725
  PAW double counting   =      4504.57742708    -4447.57995054
  entropy T*S    EENTRO =        -0.00007933
  eigenvalues    EBANDS =       350.39988475
  atomic energy  EATOM  =      4139.41857774
  Solvation  Ediel_sol  =         0.00000000
  ---------------------------------------------------
  free energy    TOTEN  =       348.37138015 eV

  energy without entropy =      348.37145948  energy(sigma->0) =      348.37141981


--------------------------------------------------------------------------------------------------------




--------------------------------------- Iteration      1(   2)  ---------------------------------------


     EDDAV:  cpu time   18.5211: real time   18.5390
       DOS:  cpu time    0.0021: real time    0.0021
    --------------------------------------------
      LOOP:  cpu time   18.5232: real time   18.5411

 eigenvalue-minimisations  : 36592
 total energy-change (2. order) :-0.3580899E+03  (-0.3370705E+03)
 number of electron      43.0000251 magnetization      -0.0000000      0.0000000      1.4211468
 augmentation part       43.0000251 magnetization      -0.0000000      0.0000000      1.4211468

 Free energy of the ion-electron system (eV)
  ---------------------------------------------------
  alpha Z        PSCENC =       267.72829227
  Ewald energy   TEWEN  =     -3906.35272624
  -Hartree energ DENC   =      -639.80685285
  -exchange      EXHF   =         0.00000000
  -V(xc)+E(xc)   XCENC  =        79.98680725
  PAW double counting   =      4504.57742708    -4447.57995054
  entropy T*S    EENTRO =        -0.00014030
  eigenvalues    EBANDS =        -7.68996411
  atomic energy  EATOM  =      4139.41857774
  Solvation  Ediel_sol  =         0.00000000
  ---------------------------------------------------
  free energy    TOTEN  =        -9.71852968 eV

  energy without entropy =       -9.71838938  energy(sigma->0) =       -9.71845953


--------------------------------------------------------------------------------------------------------




--------------------------------------- Iteration      1(   3)  ---------------------------------------


     EDDAV:  cpu time   19.6096: real time   19.6285
       DOS:  cpu time    0.0022: real time    0.0022
    --------------------------------------------
      LOOP:  cpu time   19.6119: real time   19.6308

 eigenvalue-minimisations  : 38584
 total energy-change (2. order) :-0.1622734E+02  (-0.1534111E+02)
 number of electron      43.0000251 magnetization      -0.0000000      0.0000000      1.4211468
 augmentation part       43.0000251 magnetization      -0.0000000      0.0000000      1.4211468

 Free energy of the ion-electron system (eV)
  ---------------------------------------------------
  alpha Z        PSCENC =       267.72829227
  Ewald energy   TEWEN  =     -3906.35272624
  -Hartree energ DENC   =      -639.80685285
  -exchange      EXHF   =         0.00000000
  -V(xc)+E(xc)   XCENC  =        79.98680725
  PAW double counting   =      4504.57742708    -4447.57995054
  entropy T*S    EENTRO =        -0.00013290
  eigenvalues    EBANDS =       -23.91730861
  atomic energy  EATOM  =      4139.41857774
  Solvation  Ediel_sol  =         0.00000000
  ---------------------------------------------------
  free energy    TOTEN  =       -25.94586679 eV

  energy without entropy =      -25.94573389  energy(sigma->0) =      -25.94580034


--------------------------------------------------------------------------------------------------------




--------------------------------------- Iteration      1(   4)  ---------------------------------------


     EDDAV:  cpu time   18.8028: real time   18.8356
       DOS:  cpu time    0.0020: real time    0.0020
    --------------------------------------------
      LOOP:  cpu time   18.8048: real time   18.8377

 eigenvalue-minimisations  : 35904
 total energy-change (2. order) :-0.3229604E+00  (-0.3215424E+00)
 number of electron      43.0000251 magnetization      -0.0000000      0.0000000      1.4211468
 augmentation part       43.0000251 magnetization      -0.0000000      0.0000000      1.4211468

 Free energy of the ion-electron system (eV)
  ---------------------------------------------------
  alpha Z        PSCENC =       267.72829227
  Ewald energy   TEWEN  =     -3906.35272624
  -Hartree energ DENC   =      -639.80685285
  -exchange      EXHF   =         0.00000000
  -V(xc)+E(xc)   XCENC  =        79.98680725
  PAW double counting   =      4504.57742708    -4447.57995054
  entropy T*S    EENTRO =        -0.00012978
  eigenvalues    EBANDS =       -24.24027210
  atomic energy  EATOM  =      4139.41857774
  Solvation  Ediel_sol  =         0.00000000
  ---------------------------------------------------
  free energy    TOTEN  =       -26.26882715 eV

  energy without entropy =      -26.26869737  energy(sigma->0) =      -26.26876226


--------------------------------------------------------------------------------------------------------




--------------------------------------- Iteration      1(   5)  ---------------------------------------


     EDDAV:  cpu time   18.6388: real time   18.6552
       DOS:  cpu time    0.0021: real time    0.0021
 


 total charge     
 
# of ion       s       p       d       tot
------------------------------------------
    1        2.241   6.185   3.045  11.471
    2        0.683   0.639   8.019   9.341
    3        0.666   0.671   7.930   9.266
    4        0.637   0.666   7.971   9.275
--------------------------------------------------
tot          4.228   8.161  26.965  39.353
 


 magnetization (x)
 
# of ion       s       p       d       tot
------------------------------------------
    1       -0.000   0.000   0.002   0.003
    2       -0.000   0.001   0.002   0.003
    3        0.000  -0.000   0.001   0.001
    4        0.000   0.001  -0.000   0.000
--------------------------------------------------
tot         -0.000   0.002   0.005   0.007
 


 magnetization (y)
 
# of ion       s       p       d       tot
------------------------------------------
    1       -0.000   0.000   0.000   0.000
    2       -0.000   0.000   0.002   0.002
    3        0.000   0.000   0.000   0.000
    4        0.000  -0.000   0.001   0.001
--------------------------------------------------
tot         -0.000   0.000   0.004   0.004
 


 magnetization (z)
 
# of ion       s       p       d       tot
------------------------------------------
    1        0.019   0.022   1.959   1.999
    2       -0.012   0.016  -0.164  -0.161
    3       -0.008  -0.010  -0.043  -0.062
    4       -0.003   0.003  -0.124  -0.125
--------------------------------------------------
tot         -0.005   0.030   1.627   1.651
 
    --------------------------------------------
      LOOP:  cpu time   18.6682: real time   18.6846

 eigenvalue-minimisations  : 36624
 total energy-change (2. order) :-0.6690528E-02  (-0.6689305E-02)
 number of electron      43.0000251 magnetization      -0.0000000      0.0000000      1.4211468
 augmentation part       43.0000251 magnetization      -0.0000000      0.0000000      1.4211468

 Free energy of the ion-electron system (eV)
  ---------------------------------------------------
  alpha Z        PSCENC =       267.72829227
  Ewald energy   TEWEN  =     -3906.35272624
  -Hartree energ DENC   =      -639.80685285
  -exchange      EXHF   =         0.00000000
  -V(xc)+E(xc)   XCENC  =        79.98680725
  PAW double counting   =      4504.57742708    -4447.57995054
  entropy T*S    EENTRO =        -0.00012989
  eigenvalues    EBANDS =       -24.24696251
  atomic energy  EATOM  =      4139.41857774
  Solvation  Ediel_sol  =         0.00000000
  ---------------------------------------------------
  free energy    TOTEN  =       -26.27551768 eV

  energy without entropy =      -26.27538778  energy(sigma->0) =      -26.27545273


--------------------------------------------------------------------------------------------------------




--------------------------------------- Iteration      1(   6)  ---------------------------------------


     EDDAV:  cpu time   19.1416: real time   19.1615
       DOS:  cpu time    0.0022: real time    0.0022
    --------------------------------------------
      LOOP:  cpu time   19.1166: real time   19.1365

 eigenvalue-minimisations  : 37240
 total energy-change (2. order) :-0.2113764E-03  (-0.2113644E-03)
 number of electron      43.0000251 magnetization      -0.0000000      0.0000000      1.4211468
 augmentation part       43.0000251 magnetization      -0.0000000      0.0000000      1.4211468

 Free energy of the ion-electron system (eV)
  ---------------------------------------------------
  alpha Z        PSCENC =       267.72829227
  Ewald energy   TEWEN  =     -3906.35272624
  -Hartree energ DENC   =      -639.80685285
  -exchange      EXHF   =         0.00000000
  -V(xc)+E(xc)   XCENC  =        79.98680725
  PAW double counting   =      4504.57742708    -4447.57995054
  entropy T*S    EENTRO =        -0.00012998
  eigenvalues    EBANDS =       -24.24717379
  atomic energy  EATOM  =      4139.41857774
  Solvation  Ediel_sol  =         0.00000000
  ---------------------------------------------------
  free energy    TOTEN  =       -26.27572905 eV

  energy without entropy =      -26.27559907  energy(sigma->0) =      -26.27566406


--------------------------------------------------------------------------------------------------------




--------------------------------------- Iteration      1(   7)  ---------------------------------------


     EDDAV:  cpu time   18.7224: real time   18.7383
       DOS:  cpu time    0.0021: real time    0.0021
    --------------------------------------------
      LOOP:  cpu time   18.7244: real time   18.7403

 eigenvalue-minimisations  : 36896
 total energy-change (2. order) :-0.6821341E-05  (-0.6819240E-05)
 number of electron      43.0000251 magnetization      -0.0000000      0.0000000      1.4211468
 augmentation part       43.0000251 magnetization      -0.0000000      0.0000000      1.4211468

 Free energy of the ion-electron system (eV)
  ---------------------------------------------------
  alpha Z        PSCENC =       267.72829227
  Ewald energy   TEWEN  =     -3906.35272624
  -Hartree energ DENC   =      -639.80685285
  -exchange      EXHF   =         0.00000000
  -V(xc)+E(xc)   XCENC  =        79.98680725
  PAW double counting   =      4504.57742708    -4447.57995054
  entropy T*S    EENTRO =        -0.00012998
  eigenvalues    EBANDS =       -24.24718061
  atomic energy  EATOM  =      4139.41857774
  Solvation  Ediel_sol  =         0.00000000
  ---------------------------------------------------
  free energy    TOTEN  =       -26.27573587 eV

  energy without entropy =      -26.27560589  energy(sigma->0) =      -26.27567088


--------------------------------------------------------------------------------------------------------




--------------------------------------- Iteration      1(   8)  ---------------------------------------


     EDDAV:  cpu time   19.0233: real time   19.0551
       DOS:  cpu time    0.0020: real time    0.0020
    --------------------------------------------
      LOOP:  cpu time   19.0254: real time   19.0571

 eigenvalue-minimisations  : 36640
 total energy-change (2. order) :-0.2823017E-06  (-0.2831975E-06)
 number of electron      43.0000251 magnetization      -0.0000000      0.0000000      1.4211468
 augmentation part       43.0000251 magnetization      -0.0000000      0.0000000      1.4211468

 Free energy of the ion-electron system (eV)
  ---------------------------------------------------
  alpha Z        PSCENC =       267.72829227
  Ewald energy   TEWEN  =     -3906.35272624
  -Hartree energ DENC   =      -639.80685285
  -exchange      EXHF   =         0.00000000
  -V(xc)+E(xc)   XCENC  =        79.98680725
  PAW double counting   =      4504.57742708    -4447.57995054
  entropy T*S    EENTRO =        -0.00012998
  eigenvalues    EBANDS =       -24.24718090
  atomic energy  EATOM  =      4139.41857774
  Solvation  Ediel_sol  =         0.00000000
  ---------------------------------------------------
  free energy    TOTEN  =       -26.27573616 eV

  energy without entropy =      -26.27560617  energy(sigma->0) =      -26.27567116


--------------------------------------------------------------------------------------------------------




--------------------------------------- Iteration      1(   9)  ---------------------------------------


     EDDAV:  cpu time   14.3905: real time   14.4022
       DOS:  cpu time    0.0021: real time    0.0021
    --------------------------------------------
      LOOP:  cpu time   14.3925: real time   14.4043

 eigenvalue-minimisations  : 23440
 total energy-change (2. order) :-0.1141052E-07  (-0.1172126E-07)
 number of electron      43.0000251 magnetization      -0.0000000      0.0000000      1.4211468
 augmentation part       43.0000251 magnetization      -0.0000000      0.0000000      1.4211468

 Free energy of the ion-electron system (eV)
  ---------------------------------------------------
  alpha Z        PSCENC =       267.72829227
[...]
  0.000   0.000   0.000   0.000   0.000   0.000   0.000   0.000   0.000   0.000   0.000   0.000   0.000   0.000   0.000   0.000
  0.000   0.000   0.000   0.000   0.000   0.000   0.000   0.000   0.000   0.000   0.000   0.000   0.000   0.000   0.000   0.000
  0.000   0.000   0.000   0.000   0.000   0.000   0.000   0.000   0.000   0.000   0.000   0.000   0.000   0.000   0.000   0.000
  0.000   0.000   0.000   0.000   0.000   0.000   0.000   0.000   0.000   0.000   0.000   0.000   0.000   0.000   0.000   0.000
 total augmentation occupancy for first ion, spin component:           3
  0.000   0.000   0.000   0.000   0.000   0.000   0.000   0.000   0.000   0.000   0.000   0.000   0.000   0.000   0.000   0.000
  0.000   0.000   0.000   0.000   0.000   0.000   0.000   0.000   0.000   0.000   0.000   0.000   0.000   0.000   0.000   0.000
  0.000   0.000   0.000   0.000   0.000   0.000   0.000   0.000   0.000   0.000   0.000   0.000   0.000   0.000   0.000   0.000
  0.000   0.000   0.000   0.000   0.000   0.000   0.000   0.000   0.000   0.000   0.000   0.000   0.000   0.000   0.000   0.000
  0.000   0.000   0.000   0.000   0.000   0.000   0.000   0.000   0.000   0.000   0.000   0.000   0.000   0.000   0.000   0.000
  0.000   0.000   0.000   0.000   0.000   0.000   0.000   0.000   0.000   0.000   0.000   0.000   0.000   0.000   0.000   0.000
  0.000   0.000   0.000   0.000   0.000   0.000   0.000   0.000   0.000   0.000   0.000   0.000   0.000   0.000   0.000   0.000
  0.000   0.000   0.000   0.000   0.000   0.000   0.000   0.000   0.000   0.000   0.000   0.000   0.000   0.000   0.000   0.000
  0.000   0.000   0.000   0.000   0.000   0.000   0.000   0.000   0.000   0.000   0.000   0.000   0.000   0.000   0.000   0.000
  0.000   0.000   0.000   0.000   0.000   0.000   0.000   0.000   0.000   0.000   0.000   0.000   0.000   0.000   0.000   0.000
  0.000   0.000   0.000   0.000   0.000   0.000   0.000   0.000   0.000   0.000   0.000   0.000   0.000   0.000   0.000   0.000
  0.000   0.000   0.000   0.000   0.000   0.000   0.000   0.000   0.000   0.000   0.000   0.000   0.000   0.000   0.000   0.000
  0.000   0.000   0.000   0.000   0.000   0.000   0.000   0.000   0.000   0.000   0.000   0.000   0.000   0.000   0.000   0.000
  0.000   0.000   0.000   0.000   0.000   0.000   0.000   0.000   0.000   0.000   0.000   0.000   0.000   0.000   0.000   0.000
  0.000   0.000   0.000   0.000   0.000   0.000   0.000   0.000   0.000   0.000   0.000   0.000   0.000   0.000   0.000   0.000
  0.000   0.000   0.000   0.000   0.000   0.000   0.000   0.000   0.000   0.000   0.000   0.000   0.000   0.000   0.000   0.000
  0.000   0.000   0.000   0.000   0.000   0.000   0.000   0.000   0.000   0.000   0.000   0.000   0.000   0.000   0.000   0.000
  0.000   0.000   0.000   0.000   0.000   0.000   0.000   0.000   0.000   0.000   0.000   0.000   0.000   0.000   0.000   0.000
 total augmentation occupancy for first ion, spin component:           4
  0.769   0.000   0.000   0.000   0.000   0.000   0.000   0.000   0.000   0.000   0.000   0.000   0.000   0.000   0.000   0.000
  0.000   0.385   0.000   0.000   0.000   0.000   0.000   0.000   0.000   0.000   0.000   0.000   0.000   0.000   0.000   0.000
  0.000   0.000   0.769   0.000   0.000   0.000   0.000   0.000   0.000   0.000   0.000   0.000   0.000   0.000   0.000   0.000
  0.000   0.000   0.000   0.769   0.000   0.000   0.000   0.000   0.000   0.000   0.000   0.000   0.000   0.000   0.000   0.000
  0.000   0.000   0.000   0.000   0.769   0.000   0.000   0.000   0.000   0.000   0.000   0.000   0.000   0.000   0.000   0.000
  0.000   0.000   0.000   0.000   0.000   0.000   0.000   0.000   0.000   0.000   0.000   0.000   0.000   0.000   0.000   0.000
  0.000   0.000   0.000   0.000   0.000   0.000   0.000   0.000   0.000   0.000   0.000   0.000   0.000   0.000   0.000   0.000
  0.000   0.000   0.000   0.000   0.000   0.000   0.000   0.000   0.000   0.000   0.000   0.000   0.000   0.000   0.000   0.000
  0.000   0.000   0.000   0.000   0.000   0.000   0.000   0.000   0.308   0.000   0.000   0.000   0.000   0.000   0.000   0.000
  0.000   0.000   0.000   0.000   0.000   0.000   0.000   0.000   0.000   0.308   0.000   0.000   0.000   0.000   0.000   0.000
  0.000   0.000   0.000   0.000   0.000   0.000   0.000   0.000   0.000   0.000   0.308   0.000   0.000   0.000   0.000   0.000
  0.000   0.000   0.000   0.000   0.000   0.000   0.000   0.000   0.000   0.000   0.000   0.308   0.000   0.000   0.000   0.000
  0.000   0.000   0.000   0.000   0.000   0.000   0.000   0.000   0.000   0.000   0.000   0.000   0.308   0.000   0.000   0.000
  0.000   0.000   0.000   0.000   0.000   0.000   0.000   0.000   0.000   0.000   0.000   0.000   0.000   0.000   0.000   0.000
  0.000   0.000   0.000   0.000   0.000   0.000   0.000   0.000   0.000   0.000   0.000   0.000   0.000   0.000   0.000   0.000
  0.000   0.000   0.000   0.000   0.000   0.000   0.000   0.000   0.000   0.000   0.000   0.000   0.000   0.000   0.000   0.000
  0.000   0.000   0.000   0.000   0.000   0.000   0.000   0.000   0.000   0.000   0.000   0.000   0.000   0.000   0.000   0.000
  0.000   0.000   0.000   0.000   0.000   0.000   0.000   0.000   0.000   0.000   0.000   0.000   0.000   0.000   0.000   0.000


------------------------ aborting loop because EDIFF is reached ----------------------------------------


 


 total charge     
 
# of ion       s       p       d       tot
------------------------------------------
    1        2.241   6.185   3.045  11.471
    2        0.683   0.638   8.019   9.340
    3        0.665   0.670   7.930   9.265
    4        0.636   0.665   7.971   9.273
--------------------------------------------------
tot          4.225   8.158  26.965  39.349
 


 magnetization (x)
 
# of ion       s       p       d       tot
------------------------------------------
    1       -0.000   0.000   0.002   0.003
    2       -0.000   0.001   0.002   0.003
    3       -0.000  -0.000   0.001   0.001
    4        0.000   0.001  -0.000   0.000
--------------------------------------------------
tot         -0.000   0.002   0.005   0.007
 


 magnetization (y)
 
# of ion       s       p       d       tot
------------------------------------------
    1       -0.000   0.000   0.000   0.000
    2       -0.000   0.000   0.002   0.002
    3        0.000   0.000   0.000   0.000
    4        0.000  -0.000   0.001   0.001
--------------------------------------------------
tot         -0.000   0.000   0.004   0.004
 


 magnetization (z)
 
# of ion       s       p       d       tot
------------------------------------------
    1        0.019   0.022   1.959   1.999
    2       -0.012   0.016  -0.164  -0.161
    3       -0.008  -0.010  -0.043  -0.062
    4       -0.003   0.003  -0.124  -0.125
--------------------------------------------------
tot         -0.005   0.030   1.627   1.652
 
    CHARGE:  cpu time    0.3380: real time    0.3383
    FORLOC:  cpu time    0.0002: real time    0.0002
    FORNL :  cpu time    0.9317: real time    0.9323
    STRESS:  cpu time    1.6972: real time    1.6985
    FORCOR:  cpu time    0.0087: real time    0.0088
    FORHAR:  cpu time    0.0013: real time    0.0013
    OFIELD:  cpu time    0.0000: real time    0.0000

  FORCE on cell =-STRESS in cart. coord.  units (eV):
  Direction    XX          YY          ZZ          XY          YZ          ZX
  --------------------------------------------------------------------------------------
  Alpha Z   267.72829   267.72829   267.72829
  Ewald   -1302.10316 -1302.10316 -1302.14811    -0.00000    -0.00000    -0.00000
  Hartree   218.05325   218.05325   217.04086    -0.00000    -0.00000    -0.00000
  E(xc)    -206.75191  -206.75191  -206.48699    -0.00000     0.00000     0.00000
  Local     185.80026   185.80026   194.18150    -0.00000     0.00000     0.00000
  n-local   -20.50717    -6.12170   -16.12552     3.42896     1.66219     3.19878
  augment   232.45379   232.45379   230.31337     0.00000    -0.00000     0.00000
  Kinetic   619.79828   632.01006   617.18101     1.20441     0.55515     0.48134
  Fock        0.00000     0.00000     0.00000     0.00000     0.00000     0.00000
  -------------------------------------------------------------------------------------
  Total       7.77026     7.77026     1.68443    -0.00000     0.00000     0.00000
  in kB     204.43233   204.43233    44.31656    -0.00000     0.00000     0.00000
  external pressure =      151.06 kB  Pullay stress =        0.00 kB


 VOLUME and BASIS-vectors are now :
 -----------------------------------------------------------------------------
  energy-cutoff  :      400.00
  volume of cell :       60.90
      direct lattice vectors                 reciprocal lattice vectors
     3.934021033 -0.000000000  0.000000000     0.254192845 -0.000000000  0.000000000
     0.000000000  3.934021033  0.000000000     0.000000000  0.254192845  0.000000000
     0.000000000  0.000000000  3.934803867     0.000000000  0.000000000  0.254142273

  length of vectors
     3.934021033  3.934021033  3.934803867     0.254192845  0.254192845  0.254142273


 FORCES acting on ions
    electron-ion (+dipol)            ewald-force                    non-local-force                 convergence-correction
 -----------------------------------------------------------------------------------------------
   0.247E-13 0.233E-13 0.208E-13   -.211E-13 0.229E-14 -.123E-14   -.217E-18 0.000E+00 0.000E+00   -.319E-13 -.217E-13 -.190E-13
   -.443E-13 -.434E-13 0.169E-13   0.671E-15 -.191E-14 -.135E-14   -.424E-18 0.000E+00 0.000E+00   0.523E-13 0.504E-13 -.154E-13
   -.421E-13 0.152E-13 -.409E-13   0.266E-13 0.868E-15 0.752E-15   0.182E-17 0.000E+00 0.000E+00   0.487E-13 -.138E-13 0.481E-13
   0.166E-13 -.439E-13 -.409E-13   -.439E-14 0.122E-14 0.822E-15   0.266E-18 0.000E+00 0.000E+00   -.287E-13 0.507E-13 0.481E-13
 -----------------------------------------------------------------------------------------------
   -.451E-13 -.487E-13 -.442E-13   0.179E-14 0.247E-14 -.100E-14   0.145E-17 0.000E+00 0.000E+00   0.404E-13 0.655E-13 0.617E-13
 
 
 POSITION                                       TOTAL-FORCE (eV/Angst)
 -----------------------------------------------------------------------------------
      0.00000      0.00000      0.00000         0.000000      0.000000      0.000000
      1.96701      1.96701      0.00000         0.000000      0.000000      0.000000
      1.96701     -0.00000      1.96740        -0.000000      0.000000      0.000000
      0.00000      1.96701      1.96740         0.000000      0.000000      0.000000
 -----------------------------------------------------------------------------------
    total drift:                               -0.000000      0.000000      0.000000


--------------------------------------------------------------------------------------------------------



  FREE ENERGIE OF THE ION-ELECTRON SYSTEM (eV)
  ---------------------------------------------------
  free  energy   TOTEN  =       -26.27573617 eV

  energy  without entropy=      -26.27560618  energy(sigma->0) =      -26.27567118
 


--------------------------------------------------------------------------------------------------------


    POTLOK:  cpu time    0.0198: real time    0.0198


--------------------------------------------------------------------------------------------------------


     LOOP+:  cpu time  168.6335: real time  168.8365
    4ORBIT:  cpu time    0.0000: real time    0.0000
 


 orbital moment (x)
 
 # of ion     p       d       tot
 ----------------------------------------
  1         0.000  -0.000  -0.000
  2         0.000   0.000   0.000
  3        -0.000  -0.000  -0.000
  4        -0.000   0.000   0.000
 ----------------------------------------
           -0.000   0.000   0.000
 


 orbital moment (y)
 
 # of ion     p       d       tot
 ----------------------------------------
  1        -0.000   0.000   0.000
  2        -0.000  -0.000  -0.000
  3        -0.000  -0.000  -0.000
  4        -0.000   0.000   0.000
 ----------------------------------------
           -0.000  -0.000  -0.000
 


 orbital moment (z)
 
 # of ion     p       d       tot
 ----------------------------------------
  1        -0.002   0.034   0.032
  2         0.004  -0.091  -0.087
  3         0.001  -0.055  -0.054
  4         0.001  -0.055  -0.054
 ----------------------------------------
            0.005  -0.167  -0.163

 Spin-Orbit-Coupling matrix elements

 Ion:    1  E_soc:     -0.0157628
 l=   1
     0.0000000    -0.0025302    -0.0023448
    -0.0025302     0.0000000    -0.0025302
    -0.0023448    -0.0025302     0.0000000
 l=   2
     0.0000000    -0.0001582     0.0000000    -0.0001582    -0.0000015
    -0.0001582     0.0000000    -0.0001073     0.0000421     0.0000071
     0.0000000    -0.0001073     0.0000000    -0.0001073     0.0000000
    -0.0001582     0.0000421    -0.0001073     0.0000000     0.0000071
    -0.0000015     0.0000071     0.0000000     0.0000071     0.0000000
 l=   3
     0.0000000     0.0000000     0.0000000     0.0000000     0.0000000     0.0000000     0.0000000
     0.0000000     0.0000000     0.0000000     0.0000000     0.0000000     0.0000000     0.0000000
     0.0000000     0.0000000     0.0000000     0.0000000     0.0000000     0.0000000     0.0000000
     0.0000000     0.0000000     0.0000000     0.0000000     0.0000000     0.0000000     0.0000000
     0.0000000     0.0000000     0.0000000     0.0000000     0.0000000     0.0000000     0.0000000
     0.0000000     0.0000000     0.0000000     0.0000000     0.0000000     0.0000000     0.0000000
     0.0000000     0.0000000     0.0000000     0.0000000     0.0000000     0.0000000     0.0000000

 Ion:    2  E_soc:     -0.7667407
 l=   1
     0.0000000    -0.0362951    -0.0379935
    -0.0362951     0.0000000    -0.0362951
    -0.0379935    -0.0362951     0.0000000
 l=   2
     0.0000000    -0.0177960     0.0000000    -0.0177960    -0.0699192
    -0.0177960     0.0000000    -0.0556968    -0.0199343    -0.0179737
     0.0000000    -0.0556968     0.0000000    -0.0556968     0.0000000
    -0.0177960    -0.0199343    -0.0556968     0.0000000    -0.0179737
    -0.0699192    -0.0179737     0.0000000    -0.0179737     0.0000000
 l=   3
     0.0000000     0.0000000     0.0000000     0.0000000     0.0000000     0.0000000     0.0000000
     0.0000000     0.0000000     0.0000000     0.0000000     0.0000000     0.0000000     0.0000000
     0.0000000     0.0000000     0.0000000     0.0000000     0.0000000     0.0000000     0.0000000
     0.0000000     0.0000000     0.0000000     0.0000000     0.0000000     0.0000000     0.0000000
     0.0000000     0.0000000     0.0000000     0.0000000     0.0000000     0.0000000     0.0000000
     0.0000000     0.0000000     0.0000000     0.0000000     0.0000000     0.0000000     0.0000000
     0.0000000     0.0000000     0.0000000     0.0000000     0.0000000     0.0000000     0.0000000

 Ion:    3  E_soc:     -0.7702186
 l=   1
     0.0000000    -0.0351011    -0.0364850
    -0.0351011     0.0000000    -0.0353340
    -0.0364850    -0.0353340     0.0000000
 l=   2
     0.0000000    -0.0212904     0.0000000    -0.0146820    -0.0863910
    -0.0212904     0.0000000    -0.0616646    -0.0146486    -0.0126793
     0.0000000    -0.0616646     0.0000000    -0.0512514     0.0000000
    -0.0146820    -0.0146486    -0.0512514     0.0000000    -0.0155819
    -0.0863910    -0.0126793     0.0000000    -0.0155819     0.0000000
 l=   3
     0.0000000     0.0000000     0.0000000     0.0000000     0.0000000     0.0000000     0.0000000
     0.0000000     0.0000000     0.0000000     0.0000000     0.0000000     0.0000000     0.0000000
     0.0000000     0.0000000     0.0000000     0.0000000     0.0000000     0.0000000     0.0000000
     0.0000000     0.0000000     0.0000000     0.0000000     0.0000000     0.0000000     0.0000000
     0.0000000     0.0000000     0.0000000     0.0000000     0.0000000     0.0000000     0.0000000
     0.0000000     0.0000000     0.0000000     0.0000000     0.0000000     0.0000000     0.0000000
     0.0000000     0.0000000     0.0000000     0.0000000     0.0000000     0.0000000     0.0000000

 Ion:    4  E_soc:     -0.7702186
 l=   1
     0.0000000    -0.0353340    -0.0364850
    -0.0353340     0.0000000    -0.0351011
    -0.0364850    -0.0351011     0.0000000
 l=   2
     0.0000000    -0.0146820     0.0000000    -0.0212904    -0.0863910
    -0.0146820     0.0000000    -0.0512514    -0.0146486    -0.0155819
     0.0000000    -0.0512514     0.0000000    -0.0616646     0.0000000
    -0.0212904    -0.0146486    -0.0616646     0.0000000    -0.0126793
    -0.0863910    -0.0155819     0.0000000    -0.0126793     0.0000000
 l=   3
     0.0000000     0.0000000     0.0000000     0.0000000     0.0000000     0.0000000     0.0000000
     0.0000000     0.0000000     0.0000000     0.0000000     0.0000000     0.0000000     0.0000000
     0.0000000     0.0000000     0.0000000     0.0000000     0.0000000     0.0000000     0.0000000
     0.0000000     0.0000000     0.0000000     0.0000000     0.0000000     0.0000000     0.0000000
     0.0000000     0.0000000     0.0000000     0.0000000     0.0000000     0.0000000     0.0000000
     0.0000000     0.0000000     0.0000000     0.0000000     0.0000000     0.0000000     0.0000000
     0.0000000     0.0000000     0.0000000     0.0000000     0.0000000     0.0000000     0.0000000
 


 total charge     
 
# of ion       s       p       d       tot
------------------------------------------
    1        2.241   6.185   3.045  11.471
    2        0.683   0.638   8.019   9.340
    3        0.665   0.670   7.930   9.265
    4        0.636   0.665   7.971   9.273
--------------------------------------------------
tot          4.225   8.158  26.965  39.349
 


 magnetization (x)
 
# of ion       s       p       d       tot
------------------------------------------
    1       -0.000   0.000   0.002   0.003
    2       -0.000   0.001   0.002   0.003
    3       -0.000  -0.000   0.001   0.001
    4        0.000   0.001  -0.000   0.000
--------------------------------------------------
tot         -0.000   0.002   0.005   0.007
 


 magnetization (y)
 
# of ion       s       p       d       tot
------------------------------------------
    1       -0.000   0.000   0.000   0.000
    2       -0.000   0.000   0.002   0.002
    3        0.000   0.000   0.000   0.000
    4        0.000  -0.000   0.001   0.001
--------------------------------------------------
tot         -0.000   0.000   0.004   0.004
 


 magnetization (z)
 
# of ion       s       p       d       tot
------------------------------------------
    1        0.019   0.022   1.959   1.999
    2       -0.012   0.016  -0.164  -0.161
    3       -0.008  -0.010  -0.043  -0.062
    4       -0.003   0.003  -0.124  -0.125
--------------------------------------------------
tot         -0.005   0.030   1.627   1.652
 

 total amount of memory used by VASP MPI-rank0    54577. kBytes
=======================================================================

   base      :      30000. kBytes
   nonl-proj :       8300. kBytes
   fftplans  :        139. kBytes
   grid      :        486. kBytes
   one-center:         62. kBytes
   wavefun   :      15590. kBytes
 
  
  
 General timing and accounting informations for this job:
 ========================================================
  
                  Total CPU time used (sec):      185.263
                            User time (sec):      179.742
                          System time (sec):        5.521
                         Elapsed time (sec):      186.230
  
                   Maximum memory used (kb):      117660.
                   Average memory used (kb):           0.
  
                          Minor page faults:        32909
                          Major page faults:            1
                 Voluntary context switches:         2561
